n -t * -s 0  -x 0 -y 0 -Z 0 -z 20  -v circle -c black
n -t * -s 1  -x 0 -y 0 -Z 0 -z 20  -v circle -c black
n -t * -s 2  -x 0 -y 0 -Z 0 -z 20  -v circle -c black
n -t * -s 3  -x 0 -y 0 -Z 0 -z 20  -v circle -c black
n -t * -s 4  -x 0 -y 0 -Z 0 -z 20  -v circle -c black
n -t * -s 5  -x 0 -y 0 -Z 0 -z 50  -v circle -c black
n -t * -s 6  -x 0 -y 0 -Z 0 -z 50  -v circle -c black
n -t * -s 7  -x 0 -y 0 -Z 0 -z 50  -v circle -c black
n -t * -s 8  -x 0 -y 0 -Z 0 -z 50  -v circle -c black
n -t * -s 9  -x 0 -y 0 -Z 0 -z 50  -v circle -c black
V -t * -v 1.0a5 -a 0
W -t * -x 800 -y 800
A -t * -n 1 -p 0 -o 0x7fffffff -c 30 -a 1
A -t * -h 1 -m 1073741823 -s 0
+ -t 0.087337168 -s 5 -d -1 -p message -e 32 -c 2 -a 0 -i 0 -k RTR 
- -t 0.087337168 -s 5 -d -1 -p message -e 32 -c 2 -a 0 -i 0 -k RTR
h -t 0.087337168 -s 5 -d -1 -p message -e 32 -c 2 -a 0 -i 0 -k RTR
r -t 0.088477201 -s 1 -d -1 -p message -e 32 -c 2 -a 0 -i 0 -k RTR
r -t 0.088477235 -s 4 -d -1 -p message -e 32 -c 2 -a 0 -i 0 -k RTR
r -t 0.088477235 -s 8 -d -1 -p message -e 32 -c 2 -a 0 -i 0 -k RTR
r -t 0.088477268 -s 2 -d -1 -p message -e 32 -c 2 -a 0 -i 0 -k RTR
r -t 0.088477268 -s 0 -d -1 -p message -e 32 -c 2 -a 0 -i 0 -k RTR
r -t 0.088477301 -s 9 -d -1 -p message -e 32 -c 2 -a 0 -i 0 -k RTR
+ -t 0.230197377 -s 7 -d -1 -p message -e 32 -c 2 -a 0 -i 1 -k RTR 
- -t 0.230197377 -s 7 -d -1 -p message -e 32 -c 2 -a 0 -i 1 -k RTR
h -t 0.230197377 -s 7 -d -1 -p message -e 32 -c 2 -a 0 -i 1 -k RTR
r -t 0.231257410 -s 6 -d -1 -p message -e 32 -c 2 -a 0 -i 1 -k RTR
r -t 0.231257510 -s 3 -d -1 -p message -e 32 -c 2 -a 0 -i 1 -k RTR
r -t 0.231258210 -s 8 -d -1 -p message -e 32 -c 2 -a 0 -i 1 -k RTR
+ -t 0.335213882 -s 4 -d -1 -p message -e 32 -c 2 -a 0 -i 2 -k RTR 
- -t 0.335213882 -s 4 -d -1 -p message -e 32 -c 2 -a 0 -i 2 -k RTR
h -t 0.335213882 -s 4 -d -1 -p message -e 32 -c 2 -a 0 -i 2 -k RTR
r -t 0.336433915 -s 2 -d -1 -p message -e 32 -c 2 -a 0 -i 2 -k RTR
r -t 0.336433915 -s 1 -d -1 -p message -e 32 -c 2 -a 0 -i 2 -k RTR
r -t 0.336433948 -s 5 -d -1 -p message -e 32 -c 2 -a 0 -i 2 -k RTR
r -t 0.336434015 -s 8 -d -1 -p message -e 32 -c 2 -a 0 -i 2 -k RTR
r -t 0.336434048 -s 0 -d -1 -p message -e 32 -c 2 -a 0 -i 2 -k RTR
r -t 0.336434082 -s 9 -d -1 -p message -e 32 -c 2 -a 0 -i 2 -k RTR
r -t 0.336434715 -s 3 -d -1 -p message -e 32 -c 2 -a 0 -i 2 -k RTR
+ -t 0.471615760 -s 0 -d -1 -p message -e 32 -c 2 -a 0 -i 3 -k RTR 
- -t 0.471615760 -s 0 -d -1 -p message -e 32 -c 2 -a 0 -i 3 -k RTR
h -t 0.471615760 -s 0 -d -1 -p message -e 32 -c 2 -a 0 -i 3 -k RTR
r -t 0.472735793 -s 8 -d -1 -p message -e 32 -c 2 -a 0 -i 3 -k RTR
r -t 0.472735793 -s 9 -d -1 -p message -e 32 -c 2 -a 0 -i 3 -k RTR
r -t 0.472735860 -s 5 -d -1 -p message -e 32 -c 2 -a 0 -i 3 -k RTR
r -t 0.472735893 -s 1 -d -1 -p message -e 32 -c 2 -a 0 -i 3 -k RTR
r -t 0.472735927 -s 4 -d -1 -p message -e 32 -c 2 -a 0 -i 3 -k RTR
r -t 0.472735960 -s 2 -d -1 -p message -e 32 -c 2 -a 0 -i 3 -k RTR
n -t 0.5 -s 1 -S COLOR -c red -o red -i red -I red
n -t 0.5 -s 2 -S COLOR -c red -o red -i red -I red
n -t 0.5 -s 4 -S COLOR -c red -o red -i red -I red
n -t 0.5 -s 6 -S COLOR -c red -o red -i red -I red
n -t 0.5 -s 0 -S COLOR -c blue -o blue -i blue -I blue
n -t 0.5 -s 3 -S COLOR -c blue -o blue -i blue -I blue
n -t 0.5 -s 7 -S COLOR -c blue -o blue -i blue -I blue
n -t 0.5 -s 9 -S COLOR -c blue -o blue -i blue -I blue
+ -t 0.627207570 -s 2 -d -1 -p message -e 32 -c 2 -a 0 -i 4 -k RTR 
- -t 0.627207570 -s 2 -d -1 -p message -e 32 -c 2 -a 0 -i 4 -k RTR
h -t 0.627207570 -s 2 -d -1 -p message -e 32 -c 2 -a 0 -i 4 -k RTR
r -t 0.628307604 -s 4 -d -1 -p message -e 32 -c 2 -a 0 -i 4 -k RTR
r -t 0.628307637 -s 1 -d -1 -p message -e 32 -c 2 -a 0 -i 4 -k RTR
r -t 0.628307670 -s 5 -d -1 -p message -e 32 -c 2 -a 0 -i 4 -k RTR
r -t 0.628307737 -s 8 -d -1 -p message -e 32 -c 2 -a 0 -i 4 -k RTR
r -t 0.628307770 -s 0 -d -1 -p message -e 32 -c 2 -a 0 -i 4 -k RTR
r -t 0.628307804 -s 9 -d -1 -p message -e 32 -c 2 -a 0 -i 4 -k RTR
+ -t 0.849187125 -s 9 -d -1 -p message -e 32 -c 2 -a 0 -i 5 -k RTR 
- -t 0.849187125 -s 9 -d -1 -p message -e 32 -c 2 -a 0 -i 5 -k RTR
h -t 0.849187125 -s 9 -d -1 -p message -e 32 -c 2 -a 0 -i 5 -k RTR
r -t 0.850227158 -s 0 -d -1 -p message -e 32 -c 2 -a 0 -i 5 -k RTR
r -t 0.850227192 -s 8 -d -1 -p message -e 32 -c 2 -a 0 -i 5 -k RTR
r -t 0.850227258 -s 5 -d -1 -p message -e 32 -c 2 -a 0 -i 5 -k RTR
r -t 0.850227292 -s 1 -d -1 -p message -e 32 -c 2 -a 0 -i 5 -k RTR
r -t 0.850227325 -s 4 -d -1 -p message -e 32 -c 2 -a 0 -i 5 -k RTR
r -t 0.850227358 -s 2 -d -1 -p message -e 32 -c 2 -a 0 -i 5 -k RTR
n -t 1.000000 -s 0 -x 70.000000 -y 500.000000 -U 60.000000 -V 0.000000 -T 7.000000
n -t 1.000000 -s 1 -x 30.000000 -y 500.000000 -U 70.000000 -V 0.000000 -T 6.571429
n -t 1.000000 -s 2 -x 10.000000 -y 500.000000 -U 70.000000 -V 0.000000 -T 6.857143
n -t 1.000000 -s 3 -x 20.000000 -y 250.000000 -U 65.000000 -V 0.000000 -T 7.230769
n -t 1.000000 -s 4 -x 20.000000 -y 500.000000 -U 75.000000 -V 0.000000 -T 6.266667
n -t 1.000000 -s 5 -x 40.000000 -y 500.000000 -U 90.000000 -V 0.000000 -T 5.000000
n -t 1.000000 -s 6 -x 50.000000 -y 250.000000 -U 120.000000 -V 0.000000 -T 3.666667
n -t 1.000000 -s 7 -x 60.000000 -y 250.000000 -U 60.000000 -V 0.000000 -T 7.166667
n -t 1.000000 -s 8 -x 60.000000 -y 500.000000 -U 95.000000 -V 0.000000 -T 4.526316
n -t 1.000000 -s 9 -x 80.000000 -y 500.000000 -U 110.000000 -V 0.000000 -T 3.727273
+ -t 1.278850600 -s 1 -d -1 -p message -e 32 -c 2 -a 0 -i 6 -k RTR 
- -t 1.278850600 -s 1 -d -1 -p message -e 32 -c 2 -a 0 -i 6 -k RTR
h -t 1.278850600 -s 1 -d -1 -p message -e 32 -c 2 -a 0 -i 6 -k RTR
r -t 1.279790628 -s 4 -d -1 -p message -e 32 -c 2 -a 0 -i 6 -k RTR
r -t 1.279790652 -s 5 -d -1 -p message -e 32 -c 2 -a 0 -i 6 -k RTR
r -t 1.279790666 -s 2 -d -1 -p message -e 32 -c 2 -a 0 -i 6 -k RTR
r -t 1.279790723 -s 8 -d -1 -p message -e 32 -c 2 -a 0 -i 6 -k RTR
r -t 1.279790724 -s 0 -d -1 -p message -e 32 -c 2 -a 0 -i 6 -k RTR
r -t 1.279790804 -s 9 -d -1 -p message -e 32 -c 2 -a 0 -i 6 -k RTR
+ -t 1.283491946 -s 6 -d -1 -p message -e 32 -c 2 -a 0 -i 7 -k RTR 
- -t 1.283491946 -s 6 -d -1 -p message -e 32 -c 2 -a 0 -i 7 -k RTR
h -t 1.283491946 -s 6 -d -1 -p message -e 32 -c 2 -a 0 -i 7 -k RTR
r -t 1.284491969 -s 7 -d -1 -p message -e 32 -c 2 -a 0 -i 7 -k RTR
r -t 1.284492098 -s 3 -d -1 -p message -e 32 -c 2 -a 0 -i 7 -k RTR
+ -t 1.679633806 -s 3 -d -1 -p message -e 32 -c 2 -a 0 -i 8 -k RTR 
- -t 1.679633806 -s 3 -d -1 -p message -e 32 -c 2 -a 0 -i 8 -k RTR
h -t 1.679633806 -s 3 -d -1 -p message -e 32 -c 2 -a 0 -i 8 -k RTR
r -t 1.680673928 -s 7 -d -1 -p message -e 32 -c 2 -a 0 -i 8 -k RTR
r -t 1.680674031 -s 6 -d -1 -p message -e 32 -c 2 -a 0 -i 8 -k RTR
+ -t 1.725003792 -s 8 -d -1 -p message -e 32 -c 2 -a 0 -i 9 -k RTR 
- -t 1.725003792 -s 8 -d -1 -p message -e 32 -c 2 -a 0 -i 9 -k RTR
h -t 1.725003792 -s 8 -d -1 -p message -e 32 -c 2 -a 0 -i 9 -k RTR
r -t 1.725903843 -s 0 -d -1 -p message -e 32 -c 2 -a 0 -i 9 -k RTR
r -t 1.725903870 -s 5 -d -1 -p message -e 32 -c 2 -a 0 -i 9 -k RTR
r -t 1.725903894 -s 9 -d -1 -p message -e 32 -c 2 -a 0 -i 9 -k RTR
r -t 1.725903952 -s 1 -d -1 -p message -e 32 -c 2 -a 0 -i 9 -k RTR
r -t 1.725903973 -s 4 -d -1 -p message -e 32 -c 2 -a 0 -i 9 -k RTR
r -t 1.725904019 -s 2 -d -1 -p message -e 32 -c 2 -a 0 -i 9 -k RTR
+ -t 2.000000000 -s 5 -d -1 -p tcp -e 40 -c 2 -a 0 -i 10 -k AGT 
- -t 2.000000000 -s 5 -d -1 -p tcp -e 40 -c 2 -a 0 -i 10 -k AGT
h -t 2.000000000 -s 5 -d -1 -p tcp -e 40 -c 2 -a 0 -i 10 -k AGT
+ -t 2.000000000 -s 5 -d 1 -p tcp -e 60 -c 2 -a 0 -i 10 -k RTR 
- -t 2.000000000 -s 5 -d 1 -p tcp -e 60 -c 2 -a 0 -i 10 -k RTR
h -t 2.000000000 -s 5 -d 1 -p tcp -e 60 -c 2 -a 0 -i 10 -k RTR
+ -t 2.000000000 -s 5 -d -1 -p tcp -e 40 -c 2 -a 0 -i 11 -k AGT 
- -t 2.000000000 -s 5 -d -1 -p tcp -e 40 -c 2 -a 0 -i 11 -k AGT
h -t 2.000000000 -s 5 -d -1 -p tcp -e 40 -c 2 -a 0 -i 11 -k AGT
+ -t 2.000000000 -s 5 -d 2 -p tcp -e 60 -c 2 -a 0 -i 11 -k RTR 
- -t 2.000000000 -s 5 -d 2 -p tcp -e 60 -c 2 -a 0 -i 11 -k RTR
h -t 2.000000000 -s 5 -d 2 -p tcp -e 60 -c 2 -a 0 -i 11 -k RTR
+ -t 2.000000000 -s 5 -d -1 -p tcp -e 40 -c 2 -a 0 -i 12 -k AGT 
- -t 2.000000000 -s 5 -d -1 -p tcp -e 40 -c 2 -a 0 -i 12 -k AGT
h -t 2.000000000 -s 5 -d -1 -p tcp -e 40 -c 2 -a 0 -i 12 -k AGT
+ -t 2.000000000 -s 5 -d 4 -p tcp -e 60 -c 2 -a 0 -i 12 -k RTR 
- -t 2.000000000 -s 5 -d 4 -p tcp -e 60 -c 2 -a 0 -i 12 -k RTR
h -t 2.000000000 -s 5 -d 4 -p tcp -e 60 -c 2 -a 0 -i 12 -k RTR
+ -t 2.000000000 -s 5 -d -1 -p tcp -e 40 -c 2 -a 0 -i 13 -k AGT 
- -t 2.000000000 -s 5 -d -1 -p tcp -e 40 -c 2 -a 0 -i 13 -k AGT
h -t 2.000000000 -s 5 -d -1 -p tcp -e 40 -c 2 -a 0 -i 13 -k AGT
+ -t 2.000000000 -s 8 -d -1 -p tcp -e 40 -c 2 -a 0 -i 14 -k AGT 
- -t 2.000000000 -s 8 -d -1 -p tcp -e 40 -c 2 -a 0 -i 14 -k AGT
h -t 2.000000000 -s 8 -d -1 -p tcp -e 40 -c 2 -a 0 -i 14 -k AGT
+ -t 2.000000000 -s 8 -d 0 -p tcp -e 60 -c 2 -a 0 -i 14 -k RTR 
- -t 2.000000000 -s 8 -d 0 -p tcp -e 60 -c 2 -a 0 -i 14 -k RTR
h -t 2.000000000 -s 8 -d 0 -p tcp -e 60 -c 2 -a 0 -i 14 -k RTR
+ -t 2.000000000 -s 8 -d -1 -p tcp -e 40 -c 2 -a 0 -i 15 -k AGT 
- -t 2.000000000 -s 8 -d -1 -p tcp -e 40 -c 2 -a 0 -i 15 -k AGT
h -t 2.000000000 -s 8 -d -1 -p tcp -e 40 -c 2 -a 0 -i 15 -k AGT
+ -t 2.000000000 -s 8 -d -1 -p tcp -e 40 -c 2 -a 0 -i 16 -k AGT 
- -t 2.000000000 -s 8 -d -1 -p tcp -e 40 -c 2 -a 0 -i 16 -k AGT
h -t 2.000000000 -s 8 -d -1 -p tcp -e 40 -c 2 -a 0 -i 16 -k AGT
+ -t 2.000000000 -s 8 -d 7 -p tcp -e 60 -c 2 -a 0 -i 16 -k RTR 
- -t 2.000000000 -s 8 -d 7 -p tcp -e 60 -c 2 -a 0 -i 16 -k RTR
h -t 2.000000000 -s 8 -d 7 -p tcp -e 60 -c 2 -a 0 -i 16 -k RTR
+ -t 2.000000000 -s 8 -d -1 -p tcp -e 40 -c 2 -a 0 -i 17 -k AGT 
- -t 2.000000000 -s 8 -d -1 -p tcp -e 40 -c 2 -a 0 -i 17 -k AGT
h -t 2.000000000 -s 8 -d -1 -p tcp -e 40 -c 2 -a 0 -i 17 -k AGT
+ -t 2.000000000 -s 8 -d 9 -p tcp -e 60 -c 2 -a 0 -i 17 -k RTR 
- -t 2.000000000 -s 8 -d 9 -p tcp -e 60 -c 2 -a 0 -i 17 -k RTR
h -t 2.000000000 -s 8 -d 9 -p tcp -e 60 -c 2 -a 0 -i 17 -k RTR
r -t 2.010590140 -s 0 -d 0 -p tcp -e 60 -c 2 -a 0 -i 14 -k AGT
+ -t 2.010590140 -s 0 -d -1 -p ack -e 40 -c 2 -a 0 -i 18 -k AGT 
- -t 2.010590140 -s 0 -d -1 -p ack -e 40 -c 2 -a 0 -i 18 -k AGT
h -t 2.010590140 -s 0 -d -1 -p ack -e 40 -c 2 -a 0 -i 18 -k AGT
+ -t 2.010590140 -s 0 -d 8 -p ack -e 60 -c 2 -a 0 -i 18 -k RTR 
- -t 2.010590140 -s 0 -d 8 -p ack -e 60 -c 2 -a 0 -i 18 -k RTR
h -t 2.010590140 -s 0 -d 8 -p ack -e 60 -c 2 -a 0 -i 18 -k RTR
r -t 2.016171364 -s 4 -d 4 -p tcp -e 60 -c 2 -a 0 -i 12 -k AGT
+ -t 2.016171364 -s 4 -d -1 -p ack -e 40 -c 2 -a 0 -i 19 -k AGT 
- -t 2.016171364 -s 4 -d -1 -p ack -e 40 -c 2 -a 0 -i 19 -k AGT
h -t 2.016171364 -s 4 -d -1 -p ack -e 40 -c 2 -a 0 -i 19 -k AGT
+ -t 2.016171364 -s 4 -d 5 -p ack -e 60 -c 2 -a 0 -i 19 -k RTR 
- -t 2.016171364 -s 4 -d 5 -p ack -e 60 -c 2 -a 0 -i 19 -k RTR
h -t 2.016171364 -s 4 -d 5 -p ack -e 60 -c 2 -a 0 -i 19 -k RTR
r -t 2.018215917 -s 9 -d 9 -p tcp -e 60 -c 2 -a 0 -i 17 -k AGT
+ -t 2.018215917 -s 9 -d -1 -p ack -e 40 -c 2 -a 0 -i 20 -k AGT 
- -t 2.018215917 -s 9 -d -1 -p ack -e 40 -c 2 -a 0 -i 20 -k AGT
h -t 2.018215917 -s 9 -d -1 -p ack -e 40 -c 2 -a 0 -i 20 -k AGT
+ -t 2.018215917 -s 9 -d 8 -p ack -e 60 -c 2 -a 0 -i 20 -k RTR 
- -t 2.018215917 -s 9 -d 8 -p ack -e 60 -c 2 -a 0 -i 20 -k RTR
h -t 2.018215917 -s 9 -d 8 -p ack -e 60 -c 2 -a 0 -i 20 -k RTR
r -t 2.021226589 -s 5 -d 5 -p ack -e 60 -c 2 -a 0 -i 19 -k AGT
+ -t 2.021226589 -s 5 -d -1 -p tcp -e 1040 -c 2 -a 0 -i 21 -k AGT 
- -t 2.021226589 -s 5 -d -1 -p tcp -e 1040 -c 2 -a 0 -i 21 -k AGT
h -t 2.021226589 -s 5 -d -1 -p tcp -e 1040 -c 2 -a 0 -i 21 -k AGT
+ -t 2.021226589 -s 5 -d 4 -p tcp -e 1060 -c 2 -a 0 -i 21 -k RTR 
- -t 2.021226589 -s 5 -d 4 -p tcp -e 1060 -c 2 -a 0 -i 21 -k RTR
h -t 2.021226589 -s 5 -d 4 -p tcp -e 1060 -c 2 -a 0 -i 21 -k RTR
+ -t 2.021226589 -s 5 -d -1 -p tcp -e 1040 -c 2 -a 0 -i 22 -k AGT 
- -t 2.021226589 -s 5 -d -1 -p tcp -e 1040 -c 2 -a 0 -i 22 -k AGT
h -t 2.021226589 -s 5 -d -1 -p tcp -e 1040 -c 2 -a 0 -i 22 -k AGT
+ -t 2.021226589 -s 5 -d 4 -p tcp -e 1060 -c 2 -a 0 -i 22 -k RTR 
- -t 2.021226589 -s 5 -d 4 -p tcp -e 1060 -c 2 -a 0 -i 22 -k RTR
h -t 2.021226589 -s 5 -d 4 -p tcp -e 1060 -c 2 -a 0 -i 22 -k RTR
r -t 2.023670849 -s 8 -d 8 -p ack -e 60 -c 2 -a 0 -i 18 -k AGT
+ -t 2.023670849 -s 8 -d -1 -p tcp -e 1040 -c 2 -a 0 -i 23 -k AGT 
- -t 2.023670849 -s 8 -d -1 -p tcp -e 1040 -c 2 -a 0 -i 23 -k AGT
h -t 2.023670849 -s 8 -d -1 -p tcp -e 1040 -c 2 -a 0 -i 23 -k AGT
+ -t 2.023670849 -s 8 -d 0 -p tcp -e 1060 -c 2 -a 0 -i 23 -k RTR 
- -t 2.023670849 -s 8 -d 0 -p tcp -e 1060 -c 2 -a 0 -i 23 -k RTR
h -t 2.023670849 -s 8 -d 0 -p tcp -e 1060 -c 2 -a 0 -i 23 -k RTR
+ -t 2.023670849 -s 8 -d -1 -p tcp -e 1040 -c 2 -a 0 -i 24 -k AGT 
- -t 2.023670849 -s 8 -d -1 -p tcp -e 1040 -c 2 -a 0 -i 24 -k AGT
h -t 2.023670849 -s 8 -d -1 -p tcp -e 1040 -c 2 -a 0 -i 24 -k AGT
+ -t 2.023670849 -s 8 -d 0 -p tcp -e 1060 -c 2 -a 0 -i 24 -k RTR 
- -t 2.023670849 -s 8 -d 0 -p tcp -e 1060 -c 2 -a 0 -i 24 -k RTR
h -t 2.023670849 -s 8 -d 0 -p tcp -e 1060 -c 2 -a 0 -i 24 -k RTR
r -t 2.033955108 -s 0 -d 0 -p tcp -e 1060 -c 2 -a 0 -i 23 -k AGT
+ -t 2.033955108 -s 0 -d -1 -p ack -e 40 -c 2 -a 0 -i 25 -k AGT 
- -t 2.033955108 -s 0 -d -1 -p ack -e 40 -c 2 -a 0 -i 25 -k AGT
h -t 2.033955108 -s 0 -d -1 -p ack -e 40 -c 2 -a 0 -i 25 -k AGT
+ -t 2.033955108 -s 0 -d 8 -p ack -e 60 -c 2 -a 0 -i 25 -k RTR 
- -t 2.033955108 -s 0 -d 8 -p ack -e 60 -c 2 -a 0 -i 25 -k RTR
h -t 2.033955108 -s 0 -d 8 -p ack -e 60 -c 2 -a 0 -i 25 -k RTR
r -t 2.035979669 -s 8 -d 8 -p ack -e 60 -c 2 -a 0 -i 20 -k AGT
+ -t 2.035979669 -s 8 -d -1 -p tcp -e 1040 -c 2 -a 0 -i 26 -k AGT 
- -t 2.035979669 -s 8 -d -1 -p tcp -e 1040 -c 2 -a 0 -i 26 -k AGT
h -t 2.035979669 -s 8 -d -1 -p tcp -e 1040 -c 2 -a 0 -i 26 -k AGT
+ -t 2.035979669 -s 8 -d 9 -p tcp -e 1060 -c 2 -a 0 -i 26 -k RTR 
- -t 2.035979669 -s 8 -d 9 -p tcp -e 1060 -c 2 -a 0 -i 26 -k RTR
h -t 2.035979669 -s 8 -d 9 -p tcp -e 1060 -c 2 -a 0 -i 26 -k RTR
+ -t 2.035979669 -s 8 -d -1 -p tcp -e 1040 -c 2 -a 0 -i 27 -k AGT 
- -t 2.035979669 -s 8 -d -1 -p tcp -e 1040 -c 2 -a 0 -i 27 -k AGT
h -t 2.035979669 -s 8 -d -1 -p tcp -e 1040 -c 2 -a 0 -i 27 -k AGT
+ -t 2.035979669 -s 8 -d 9 -p tcp -e 1060 -c 2 -a 0 -i 27 -k RTR 
- -t 2.035979669 -s 8 -d 9 -p tcp -e 1060 -c 2 -a 0 -i 27 -k RTR
h -t 2.035979669 -s 8 -d 9 -p tcp -e 1060 -c 2 -a 0 -i 27 -k RTR
r -t 2.038184060 -s 1 -d 1 -p tcp -e 60 -c 2 -a 0 -i 10 -k AGT
+ -t 2.038184060 -s 1 -d -1 -p ack -e 40 -c 2 -a 0 -i 28 -k AGT 
- -t 2.038184060 -s 1 -d -1 -p ack -e 40 -c 2 -a 0 -i 28 -k AGT
h -t 2.038184060 -s 1 -d -1 -p ack -e 40 -c 2 -a 0 -i 28 -k AGT
+ -t 2.038184060 -s 1 -d 5 -p ack -e 60 -c 2 -a 0 -i 28 -k RTR 
- -t 2.038184060 -s 1 -d 5 -p ack -e 60 -c 2 -a 0 -i 28 -k RTR
h -t 2.038184060 -s 1 -d 5 -p ack -e 60 -c 2 -a 0 -i 28 -k RTR
r -t 2.040208422 -s 8 -d 8 -p ack -e 60 -c 2 -a 0 -i 25 -k AGT
+ -t 2.040208422 -s 8 -d -1 -p tcp -e 1040 -c 2 -a 0 -i 29 -k AGT 
- -t 2.040208422 -s 8 -d -1 -p tcp -e 1040 -c 2 -a 0 -i 29 -k AGT
h -t 2.040208422 -s 8 -d -1 -p tcp -e 1040 -c 2 -a 0 -i 29 -k AGT
+ -t 2.040208422 -s 8 -d 0 -p tcp -e 1060 -c 2 -a 0 -i 29 -k RTR 
- -t 2.040208422 -s 8 -d 0 -p tcp -e 1060 -c 2 -a 0 -i 29 -k RTR
h -t 2.040208422 -s 8 -d 0 -p tcp -e 1060 -c 2 -a 0 -i 29 -k RTR
+ -t 2.040208422 -s 8 -d -1 -p tcp -e 1040 -c 2 -a 0 -i 30 -k AGT 
- -t 2.040208422 -s 8 -d -1 -p tcp -e 1040 -c 2 -a 0 -i 30 -k AGT
h -t 2.040208422 -s 8 -d -1 -p tcp -e 1040 -c 2 -a 0 -i 30 -k AGT
+ -t 2.040208422 -s 8 -d 0 -p tcp -e 1060 -c 2 -a 0 -i 30 -k RTR 
- -t 2.040208422 -s 8 -d 0 -p tcp -e 1060 -c 2 -a 0 -i 30 -k RTR
h -t 2.040208422 -s 8 -d 0 -p tcp -e 1060 -c 2 -a 0 -i 30 -k RTR
r -t 2.050232687 -s 0 -d 0 -p tcp -e 1060 -c 2 -a 0 -i 24 -k AGT
+ -t 2.050232687 -s 0 -d -1 -p ack -e 40 -c 2 -a 0 -i 31 -k AGT 
- -t 2.050232687 -s 0 -d -1 -p ack -e 40 -c 2 -a 0 -i 31 -k AGT
h -t 2.050232687 -s 0 -d -1 -p ack -e 40 -c 2 -a 0 -i 31 -k AGT
+ -t 2.050232687 -s 0 -d 8 -p ack -e 60 -c 2 -a 0 -i 31 -k RTR 
- -t 2.050232687 -s 0 -d 8 -p ack -e 60 -c 2 -a 0 -i 31 -k RTR
h -t 2.050232687 -s 0 -d 8 -p ack -e 60 -c 2 -a 0 -i 31 -k RTR
r -t 2.061143134 -s 9 -d 9 -p tcp -e 1060 -c 2 -a 0 -i 26 -k AGT
+ -t 2.061143134 -s 9 -d -1 -p ack -e 40 -c 2 -a 0 -i 32 -k AGT 
- -t 2.061143134 -s 9 -d -1 -p ack -e 40 -c 2 -a 0 -i 32 -k AGT
h -t 2.061143134 -s 9 -d -1 -p ack -e 40 -c 2 -a 0 -i 32 -k AGT
+ -t 2.061143134 -s 9 -d 8 -p ack -e 60 -c 2 -a 0 -i 32 -k RTR 
- -t 2.061143134 -s 9 -d 8 -p ack -e 60 -c 2 -a 0 -i 32 -k RTR
h -t 2.061143134 -s 9 -d 8 -p ack -e 60 -c 2 -a 0 -i 32 -k RTR
r -t 2.063247493 -s 8 -d 8 -p ack -e 60 -c 2 -a 0 -i 32 -k AGT
+ -t 2.063247493 -s 8 -d -1 -p tcp -e 1040 -c 2 -a 0 -i 33 -k AGT 
- -t 2.063247493 -s 8 -d -1 -p tcp -e 1040 -c 2 -a 0 -i 33 -k AGT
h -t 2.063247493 -s 8 -d -1 -p tcp -e 1040 -c 2 -a 0 -i 33 -k AGT
+ -t 2.063247493 -s 8 -d 9 -p tcp -e 1060 -c 2 -a 0 -i 33 -k RTR 
- -t 2.063247493 -s 8 -d 9 -p tcp -e 1060 -c 2 -a 0 -i 33 -k RTR
h -t 2.063247493 -s 8 -d 9 -p tcp -e 1060 -c 2 -a 0 -i 33 -k RTR
+ -t 2.063247493 -s 8 -d -1 -p tcp -e 1040 -c 2 -a 0 -i 34 -k AGT 
- -t 2.063247493 -s 8 -d -1 -p tcp -e 1040 -c 2 -a 0 -i 34 -k AGT
h -t 2.063247493 -s 8 -d -1 -p tcp -e 1040 -c 2 -a 0 -i 34 -k AGT
+ -t 2.063247493 -s 8 -d 9 -p tcp -e 1060 -c 2 -a 0 -i 34 -k RTR 
- -t 2.063247493 -s 8 -d 9 -p tcp -e 1060 -c 2 -a 0 -i 34 -k RTR
h -t 2.063247493 -s 8 -d 9 -p tcp -e 1060 -c 2 -a 0 -i 34 -k RTR
r -t 2.073271852 -s 9 -d 9 -p tcp -e 1060 -c 2 -a 0 -i 27 -k AGT
+ -t 2.073271852 -s 9 -d -1 -p ack -e 40 -c 2 -a 0 -i 35 -k AGT 
- -t 2.073271852 -s 9 -d -1 -p ack -e 40 -c 2 -a 0 -i 35 -k AGT
h -t 2.073271852 -s 9 -d -1 -p ack -e 40 -c 2 -a 0 -i 35 -k AGT
+ -t 2.073271852 -s 9 -d 8 -p ack -e 60 -c 2 -a 0 -i 35 -k RTR 
- -t 2.073271852 -s 9 -d 8 -p ack -e 60 -c 2 -a 0 -i 35 -k RTR
h -t 2.073271852 -s 9 -d 8 -p ack -e 60 -c 2 -a 0 -i 35 -k RTR
r -t 2.083256249 -s 0 -d 0 -p tcp -e 1060 -c 2 -a 0 -i 29 -k AGT
+ -t 2.083256249 -s 0 -d -1 -p ack -e 40 -c 2 -a 0 -i 36 -k AGT 
- -t 2.083256249 -s 0 -d -1 -p ack -e 40 -c 2 -a 0 -i 36 -k AGT
h -t 2.083256249 -s 0 -d -1 -p ack -e 40 -c 2 -a 0 -i 36 -k AGT
+ -t 2.083256249 -s 0 -d 8 -p ack -e 60 -c 2 -a 0 -i 36 -k RTR 
- -t 2.083256249 -s 0 -d 8 -p ack -e 60 -c 2 -a 0 -i 36 -k RTR
h -t 2.083256249 -s 0 -d 8 -p ack -e 60 -c 2 -a 0 -i 36 -k RTR
r -t 2.093380621 -s 0 -d 0 -p tcp -e 1060 -c 2 -a 0 -i 30 -k AGT
+ -t 2.093380621 -s 0 -d -1 -p ack -e 40 -c 2 -a 0 -i 37 -k AGT 
- -t 2.093380621 -s 0 -d -1 -p ack -e 40 -c 2 -a 0 -i 37 -k AGT
h -t 2.093380621 -s 0 -d -1 -p ack -e 40 -c 2 -a 0 -i 37 -k AGT
+ -t 2.093380621 -s 0 -d 8 -p ack -e 60 -c 2 -a 0 -i 37 -k RTR 
- -t 2.093380621 -s 0 -d 8 -p ack -e 60 -c 2 -a 0 -i 37 -k RTR
h -t 2.093380621 -s 0 -d 8 -p ack -e 60 -c 2 -a 0 -i 37 -k RTR
r -t 2.095405201 -s 8 -d 8 -p ack -e 60 -c 2 -a 0 -i 35 -k AGT
+ -t 2.095405201 -s 8 -d -1 -p tcp -e 1040 -c 2 -a 0 -i 38 -k AGT 
- -t 2.095405201 -s 8 -d -1 -p tcp -e 1040 -c 2 -a 0 -i 38 -k AGT
h -t 2.095405201 -s 8 -d -1 -p tcp -e 1040 -c 2 -a 0 -i 38 -k AGT
+ -t 2.095405201 -s 8 -d 9 -p tcp -e 1060 -c 2 -a 0 -i 38 -k RTR 
- -t 2.095405201 -s 8 -d 9 -p tcp -e 1060 -c 2 -a 0 -i 38 -k RTR
h -t 2.095405201 -s 8 -d 9 -p tcp -e 1060 -c 2 -a 0 -i 38 -k RTR
+ -t 2.095405201 -s 8 -d -1 -p tcp -e 1040 -c 2 -a 0 -i 39 -k AGT 
- -t 2.095405201 -s 8 -d -1 -p tcp -e 1040 -c 2 -a 0 -i 39 -k AGT
h -t 2.095405201 -s 8 -d -1 -p tcp -e 1040 -c 2 -a 0 -i 39 -k AGT
+ -t 2.095405201 -s 8 -d 9 -p tcp -e 1060 -c 2 -a 0 -i 39 -k RTR 
- -t 2.095405201 -s 8 -d 9 -p tcp -e 1060 -c 2 -a 0 -i 39 -k RTR
h -t 2.095405201 -s 8 -d 9 -p tcp -e 1060 -c 2 -a 0 -i 39 -k RTR
r -t 2.097409711 -s 5 -d 5 -p ack -e 60 -c 2 -a 0 -i 28 -k AGT
+ -t 2.097409711 -s 5 -d -1 -p tcp -e 1040 -c 2 -a 0 -i 40 -k AGT 
- -t 2.097409711 -s 5 -d -1 -p tcp -e 1040 -c 2 -a 0 -i 40 -k AGT
h -t 2.097409711 -s 5 -d -1 -p tcp -e 1040 -c 2 -a 0 -i 40 -k AGT
+ -t 2.097409711 -s 5 -d 1 -p tcp -e 1060 -c 2 -a 0 -i 40 -k RTR 
- -t 2.097409711 -s 5 -d 1 -p tcp -e 1060 -c 2 -a 0 -i 40 -k RTR
h -t 2.097409711 -s 5 -d 1 -p tcp -e 1060 -c 2 -a 0 -i 40 -k RTR
+ -t 2.097409711 -s 5 -d -1 -p tcp -e 1040 -c 2 -a 0 -i 41 -k AGT 
- -t 2.097409711 -s 5 -d -1 -p tcp -e 1040 -c 2 -a 0 -i 41 -k AGT
h -t 2.097409711 -s 5 -d -1 -p tcp -e 1040 -c 2 -a 0 -i 41 -k AGT
+ -t 2.097409711 -s 5 -d 1 -p tcp -e 1060 -c 2 -a 0 -i 41 -k RTR 
- -t 2.097409711 -s 5 -d 1 -p tcp -e 1060 -c 2 -a 0 -i 41 -k RTR
h -t 2.097409711 -s 5 -d 1 -p tcp -e 1060 -c 2 -a 0 -i 41 -k RTR
r -t 2.107494076 -s 4 -d 4 -p tcp -e 1060 -c 2 -a 0 -i 21 -k AGT
+ -t 2.107494076 -s 4 -d -1 -p ack -e 40 -c 2 -a 0 -i 42 -k AGT 
- -t 2.107494076 -s 4 -d -1 -p ack -e 40 -c 2 -a 0 -i 42 -k AGT
h -t 2.107494076 -s 4 -d -1 -p ack -e 40 -c 2 -a 0 -i 42 -k AGT
+ -t 2.107494076 -s 4 -d 5 -p ack -e 60 -c 2 -a 0 -i 42 -k RTR 
- -t 2.107494076 -s 4 -d 5 -p ack -e 60 -c 2 -a 0 -i 42 -k RTR
h -t 2.107494076 -s 4 -d 5 -p ack -e 60 -c 2 -a 0 -i 42 -k RTR
r -t 2.117678649 -s 9 -d 9 -p tcp -e 1060 -c 2 -a 0 -i 33 -k AGT
+ -t 2.117678649 -s 9 -d -1 -p ack -e 40 -c 2 -a 0 -i 43 -k AGT 
- -t 2.117678649 -s 9 -d -1 -p ack -e 40 -c 2 -a 0 -i 43 -k AGT
h -t 2.117678649 -s 9 -d -1 -p ack -e 40 -c 2 -a 0 -i 43 -k AGT
+ -t 2.117678649 -s 9 -d 8 -p ack -e 60 -c 2 -a 0 -i 43 -k RTR 
- -t 2.117678649 -s 9 -d 8 -p ack -e 60 -c 2 -a 0 -i 43 -k RTR
h -t 2.117678649 -s 9 -d 8 -p ack -e 60 -c 2 -a 0 -i 43 -k RTR
r -t 2.127683140 -s 9 -d 9 -p tcp -e 1060 -c 2 -a 0 -i 34 -k AGT
+ -t 2.127683140 -s 9 -d -1 -p ack -e 40 -c 2 -a 0 -i 44 -k AGT 
- -t 2.127683140 -s 9 -d -1 -p ack -e 40 -c 2 -a 0 -i 44 -k AGT
h -t 2.127683140 -s 9 -d -1 -p ack -e 40 -c 2 -a 0 -i 44 -k AGT
+ -t 2.127683140 -s 9 -d 8 -p ack -e 60 -c 2 -a 0 -i 44 -k RTR 
- -t 2.127683140 -s 9 -d 8 -p ack -e 60 -c 2 -a 0 -i 44 -k RTR
h -t 2.127683140 -s 9 -d 8 -p ack -e 60 -c 2 -a 0 -i 44 -k RTR
r -t 2.137767718 -s 4 -d 4 -p tcp -e 1060 -c 2 -a 0 -i 22 -k AGT
+ -t 2.137767718 -s 4 -d -1 -p ack -e 40 -c 2 -a 0 -i 45 -k AGT 
- -t 2.137767718 -s 4 -d -1 -p ack -e 40 -c 2 -a 0 -i 45 -k AGT
h -t 2.137767718 -s 4 -d -1 -p ack -e 40 -c 2 -a 0 -i 45 -k AGT
+ -t 2.137767718 -s 4 -d 5 -p ack -e 60 -c 2 -a 0 -i 45 -k RTR 
- -t 2.137767718 -s 4 -d 5 -p ack -e 60 -c 2 -a 0 -i 45 -k RTR
h -t 2.137767718 -s 4 -d 5 -p ack -e 60 -c 2 -a 0 -i 45 -k RTR
r -t 2.139792421 -s 8 -d 8 -p ack -e 60 -c 2 -a 0 -i 43 -k AGT
+ -t 2.139792421 -s 8 -d -1 -p tcp -e 1040 -c 2 -a 0 -i 46 -k AGT 
- -t 2.139792421 -s 8 -d -1 -p tcp -e 1040 -c 2 -a 0 -i 46 -k AGT
h -t 2.139792421 -s 8 -d -1 -p tcp -e 1040 -c 2 -a 0 -i 46 -k AGT
+ -t 2.139792421 -s 8 -d 9 -p tcp -e 1060 -c 2 -a 0 -i 46 -k RTR 
- -t 2.139792421 -s 8 -d 9 -p tcp -e 1060 -c 2 -a 0 -i 46 -k RTR
h -t 2.139792421 -s 8 -d 9 -p tcp -e 1060 -c 2 -a 0 -i 46 -k RTR
+ -t 2.139792421 -s 8 -d -1 -p tcp -e 1040 -c 2 -a 0 -i 47 -k AGT 
- -t 2.139792421 -s 8 -d -1 -p tcp -e 1040 -c 2 -a 0 -i 47 -k AGT
h -t 2.139792421 -s 8 -d -1 -p tcp -e 1040 -c 2 -a 0 -i 47 -k AGT
+ -t 2.139792421 -s 8 -d 9 -p tcp -e 1060 -c 2 -a 0 -i 47 -k RTR 
- -t 2.139792421 -s 8 -d 9 -p tcp -e 1060 -c 2 -a 0 -i 47 -k RTR
h -t 2.139792421 -s 8 -d 9 -p tcp -e 1060 -c 2 -a 0 -i 47 -k RTR
r -t 2.141776916 -s 8 -d 8 -p ack -e 60 -c 2 -a 0 -i 44 -k AGT
+ -t 2.141776916 -s 8 -d -1 -p tcp -e 1040 -c 2 -a 0 -i 48 -k AGT 
- -t 2.141776916 -s 8 -d -1 -p tcp -e 1040 -c 2 -a 0 -i 48 -k AGT
h -t 2.141776916 -s 8 -d -1 -p tcp -e 1040 -c 2 -a 0 -i 48 -k AGT
+ -t 2.141776916 -s 8 -d 9 -p tcp -e 1060 -c 2 -a 0 -i 48 -k RTR 
- -t 2.141776916 -s 8 -d 9 -p tcp -e 1060 -c 2 -a 0 -i 48 -k RTR
h -t 2.141776916 -s 8 -d 9 -p tcp -e 1060 -c 2 -a 0 -i 48 -k RTR
+ -t 2.141776916 -s 8 -d -1 -p tcp -e 1040 -c 2 -a 0 -i 49 -k AGT 
- -t 2.141776916 -s 8 -d -1 -p tcp -e 1040 -c 2 -a 0 -i 49 -k AGT
h -t 2.141776916 -s 8 -d -1 -p tcp -e 1040 -c 2 -a 0 -i 49 -k AGT
+ -t 2.141776916 -s 8 -d 9 -p tcp -e 1060 -c 2 -a 0 -i 49 -k RTR 
- -t 2.141776916 -s 8 -d 9 -p tcp -e 1060 -c 2 -a 0 -i 49 -k RTR
h -t 2.141776916 -s 8 -d 9 -p tcp -e 1060 -c 2 -a 0 -i 49 -k RTR
r -t 2.151821330 -s 1 -d 1 -p tcp -e 1060 -c 2 -a 0 -i 40 -k AGT
+ -t 2.151821330 -s 1 -d -1 -p ack -e 40 -c 2 -a 0 -i 50 -k AGT 
- -t 2.151821330 -s 1 -d -1 -p ack -e 40 -c 2 -a 0 -i 50 -k AGT
h -t 2.151821330 -s 1 -d -1 -p ack -e 40 -c 2 -a 0 -i 50 -k AGT
+ -t 2.151821330 -s 1 -d 5 -p ack -e 60 -c 2 -a 0 -i 50 -k RTR 
- -t 2.151821330 -s 1 -d 5 -p ack -e 60 -c 2 -a 0 -i 50 -k RTR
h -t 2.151821330 -s 1 -d 5 -p ack -e 60 -c 2 -a 0 -i 50 -k RTR
r -t 2.161865899 -s 9 -d 9 -p tcp -e 1060 -c 2 -a 0 -i 38 -k AGT
+ -t 2.161865899 -s 9 -d -1 -p ack -e 40 -c 2 -a 0 -i 51 -k AGT 
- -t 2.161865899 -s 9 -d -1 -p ack -e 40 -c 2 -a 0 -i 51 -k AGT
h -t 2.161865899 -s 9 -d -1 -p ack -e 40 -c 2 -a 0 -i 51 -k AGT
+ -t 2.161865899 -s 9 -d 8 -p ack -e 60 -c 2 -a 0 -i 51 -k RTR 
- -t 2.161865899 -s 9 -d 8 -p ack -e 60 -c 2 -a 0 -i 51 -k RTR
h -t 2.161865899 -s 9 -d 8 -p ack -e 60 -c 2 -a 0 -i 51 -k RTR
r -t 2.164776650 -s 8 -d 8 -p ack -e 60 -c 2 -a 0 -i 31 -k AGT
+ -t 2.164776650 -s 8 -d -1 -p tcp -e 1040 -c 2 -a 0 -i 52 -k AGT 
- -t 2.164776650 -s 8 -d -1 -p tcp -e 1040 -c 2 -a 0 -i 52 -k AGT
h -t 2.164776650 -s 8 -d -1 -p tcp -e 1040 -c 2 -a 0 -i 52 -k AGT
+ -t 2.164776650 -s 8 -d 0 -p tcp -e 1060 -c 2 -a 0 -i 52 -k RTR 
- -t 2.164776650 -s 8 -d 0 -p tcp -e 1060 -c 2 -a 0 -i 52 -k RTR
h -t 2.164776650 -s 8 -d 0 -p tcp -e 1060 -c 2 -a 0 -i 52 -k RTR
+ -t 2.164776650 -s 8 -d -1 -p tcp -e 1040 -c 2 -a 0 -i 53 -k AGT 
- -t 2.164776650 -s 8 -d -1 -p tcp -e 1040 -c 2 -a 0 -i 53 -k AGT
h -t 2.164776650 -s 8 -d -1 -p tcp -e 1040 -c 2 -a 0 -i 53 -k AGT
+ -t 2.164776650 -s 8 -d 0 -p tcp -e 1060 -c 2 -a 0 -i 53 -k RTR 
- -t 2.164776650 -s 8 -d 0 -p tcp -e 1060 -c 2 -a 0 -i 53 -k RTR
h -t 2.164776650 -s 8 -d 0 -p tcp -e 1060 -c 2 -a 0 -i 53 -k RTR
r -t 2.166861236 -s 5 -d 5 -p ack -e 60 -c 2 -a 0 -i 42 -k AGT
+ -t 2.166861236 -s 5 -d -1 -p tcp -e 1040 -c 2 -a 0 -i 54 -k AGT 
- -t 2.166861236 -s 5 -d -1 -p tcp -e 1040 -c 2 -a 0 -i 54 -k AGT
h -t 2.166861236 -s 5 -d -1 -p tcp -e 1040 -c 2 -a 0 -i 54 -k AGT
+ -t 2.166861236 -s 5 -d 4 -p tcp -e 1060 -c 2 -a 0 -i 54 -k RTR 
- -t 2.166861236 -s 5 -d 4 -p tcp -e 1060 -c 2 -a 0 -i 54 -k RTR
h -t 2.166861236 -s 5 -d 4 -p tcp -e 1060 -c 2 -a 0 -i 54 -k RTR
+ -t 2.166861236 -s 5 -d -1 -p tcp -e 1040 -c 2 -a 0 -i 55 -k AGT 
- -t 2.166861236 -s 5 -d -1 -p tcp -e 1040 -c 2 -a 0 -i 55 -k AGT
h -t 2.166861236 -s 5 -d -1 -p tcp -e 1040 -c 2 -a 0 -i 55 -k AGT
+ -t 2.166861236 -s 5 -d 4 -p tcp -e 1060 -c 2 -a 0 -i 55 -k RTR 
- -t 2.166861236 -s 5 -d 4 -p tcp -e 1060 -c 2 -a 0 -i 55 -k RTR
h -t 2.166861236 -s 5 -d 4 -p tcp -e 1060 -c 2 -a 0 -i 55 -k RTR
r -t 2.168865736 -s 5 -d 5 -p ack -e 60 -c 2 -a 0 -i 45 -k AGT
+ -t 2.168865736 -s 5 -d -1 -p tcp -e 1040 -c 2 -a 0 -i 56 -k AGT 
- -t 2.168865736 -s 5 -d -1 -p tcp -e 1040 -c 2 -a 0 -i 56 -k AGT
h -t 2.168865736 -s 5 -d -1 -p tcp -e 1040 -c 2 -a 0 -i 56 -k AGT
+ -t 2.168865736 -s 5 -d 4 -p tcp -e 1060 -c 2 -a 0 -i 56 -k RTR 
- -t 2.168865736 -s 5 -d 4 -p tcp -e 1060 -c 2 -a 0 -i 56 -k RTR
h -t 2.168865736 -s 5 -d 4 -p tcp -e 1060 -c 2 -a 0 -i 56 -k RTR
+ -t 2.168865736 -s 5 -d -1 -p tcp -e 1040 -c 2 -a 0 -i 57 -k AGT 
- -t 2.168865736 -s 5 -d -1 -p tcp -e 1040 -c 2 -a 0 -i 57 -k AGT
h -t 2.168865736 -s 5 -d -1 -p tcp -e 1040 -c 2 -a 0 -i 57 -k AGT
+ -t 2.168865736 -s 5 -d 4 -p tcp -e 1060 -c 2 -a 0 -i 57 -k RTR 
- -t 2.168865736 -s 5 -d 4 -p tcp -e 1060 -c 2 -a 0 -i 57 -k RTR
h -t 2.168865736 -s 5 -d 4 -p tcp -e 1060 -c 2 -a 0 -i 57 -k RTR
r -t 2.179916448 -s 9 -d 9 -p tcp -e 1060 -c 2 -a 0 -i 39 -k AGT
+ -t 2.179916448 -s 9 -d -1 -p ack -e 40 -c 2 -a 0 -i 58 -k AGT 
- -t 2.179916448 -s 9 -d -1 -p ack -e 40 -c 2 -a 0 -i 58 -k AGT
h -t 2.179916448 -s 9 -d -1 -p ack -e 40 -c 2 -a 0 -i 58 -k AGT
+ -t 2.179916448 -s 9 -d 8 -p ack -e 60 -c 2 -a 0 -i 58 -k RTR 
- -t 2.179916448 -s 9 -d 8 -p ack -e 60 -c 2 -a 0 -i 58 -k RTR
h -t 2.179916448 -s 9 -d 8 -p ack -e 60 -c 2 -a 0 -i 58 -k RTR
r -t 2.181961108 -s 5 -d 5 -p ack -e 60 -c 2 -a 0 -i 50 -k AGT
+ -t 2.181961108 -s 5 -d -1 -p tcp -e 1040 -c 2 -a 0 -i 59 -k AGT 
- -t 2.181961108 -s 5 -d -1 -p tcp -e 1040 -c 2 -a 0 -i 59 -k AGT
h -t 2.181961108 -s 5 -d -1 -p tcp -e 1040 -c 2 -a 0 -i 59 -k AGT
+ -t 2.181961108 -s 5 -d 1 -p tcp -e 1060 -c 2 -a 0 -i 59 -k RTR 
- -t 2.181961108 -s 5 -d 1 -p tcp -e 1060 -c 2 -a 0 -i 59 -k RTR
h -t 2.181961108 -s 5 -d 1 -p tcp -e 1060 -c 2 -a 0 -i 59 -k RTR
+ -t 2.181961108 -s 5 -d -1 -p tcp -e 1040 -c 2 -a 0 -i 60 -k AGT 
- -t 2.181961108 -s 5 -d -1 -p tcp -e 1040 -c 2 -a 0 -i 60 -k AGT
h -t 2.181961108 -s 5 -d -1 -p tcp -e 1040 -c 2 -a 0 -i 60 -k AGT
+ -t 2.181961108 -s 5 -d 1 -p tcp -e 1060 -c 2 -a 0 -i 60 -k RTR 
- -t 2.181961108 -s 5 -d 1 -p tcp -e 1060 -c 2 -a 0 -i 60 -k RTR
h -t 2.181961108 -s 5 -d 1 -p tcp -e 1060 -c 2 -a 0 -i 60 -k RTR
r -t 2.192005445 -s 1 -d 1 -p tcp -e 1060 -c 2 -a 0 -i 41 -k AGT
+ -t 2.192005445 -s 1 -d -1 -p ack -e 40 -c 2 -a 0 -i 61 -k AGT 
- -t 2.192005445 -s 1 -d -1 -p ack -e 40 -c 2 -a 0 -i 61 -k AGT
h -t 2.192005445 -s 1 -d -1 -p ack -e 40 -c 2 -a 0 -i 61 -k AGT
+ -t 2.192005445 -s 1 -d 5 -p ack -e 60 -c 2 -a 0 -i 61 -k RTR 
- -t 2.192005445 -s 1 -d 5 -p ack -e 60 -c 2 -a 0 -i 61 -k RTR
h -t 2.192005445 -s 1 -d 5 -p ack -e 60 -c 2 -a 0 -i 61 -k RTR
r -t 2.202250023 -s 9 -d 9 -p tcp -e 1060 -c 2 -a 0 -i 46 -k AGT
+ -t 2.202250023 -s 9 -d -1 -p ack -e 40 -c 2 -a 0 -i 62 -k AGT 
- -t 2.202250023 -s 9 -d -1 -p ack -e 40 -c 2 -a 0 -i 62 -k AGT
h -t 2.202250023 -s 9 -d -1 -p ack -e 40 -c 2 -a 0 -i 62 -k AGT
+ -t 2.202250023 -s 9 -d 8 -p ack -e 60 -c 2 -a 0 -i 62 -k RTR 
- -t 2.202250023 -s 9 -d 8 -p ack -e 60 -c 2 -a 0 -i 62 -k RTR
h -t 2.202250023 -s 9 -d 8 -p ack -e 60 -c 2 -a 0 -i 62 -k RTR
r -t 2.212294617 -s 4 -d 4 -p tcp -e 1060 -c 2 -a 0 -i 54 -k AGT
+ -t 2.212294617 -s 4 -d -1 -p ack -e 40 -c 2 -a 0 -i 63 -k AGT 
- -t 2.212294617 -s 4 -d -1 -p ack -e 40 -c 2 -a 0 -i 63 -k AGT
h -t 2.212294617 -s 4 -d -1 -p ack -e 40 -c 2 -a 0 -i 63 -k AGT
+ -t 2.212294617 -s 4 -d 5 -p ack -e 60 -c 2 -a 0 -i 63 -k RTR 
- -t 2.212294617 -s 4 -d 5 -p ack -e 60 -c 2 -a 0 -i 63 -k RTR