n -t * -s 0  -x 0 -y 0 -Z 0 -z 20  -v circle -c black
n -t * -s 1  -x 0 -y 0 -Z 0 -z 20  -v circle -c black
n -t * -s 2  -x 0 -y 0 -Z 0 -z 20  -v circle -c black
n -t * -s 3  -x 0 -y 0 -Z 0 -z 20  -v circle -c black
n -t * -s 4  -x 0 -y 0 -Z 0 -z 20  -v circle -c black
n -t * -s 5  -x 0 -y 0 -Z 0 -z 20  -v circle -c black
n -t * -s 6  -x 0 -y 0 -Z 0 -z 20  -v circle -c black
n -t * -s 7  -x 0 -y 0 -Z 0 -z 20  -v circle -c black
n -t * -s 8  -x 0 -y 0 -Z 0 -z 20  -v circle -c black
n -t * -s 9  -x 0 -y 0 -Z 0 -z 20  -v circle -c black
V -t * -v 1.0a5 -a 0
W -t * -x 250 -y 250
A -t * -n 1 -p 0 -o 0x7fffffff -c 30 -a 1
A -t * -h 1 -m 1073741823 -s 0
n -t 0.000000 -s 0 -x 70.000000 -y 500.000000 -U 16.652379 -V -57.642851 -T 7.806692
n -t 0.000000 -s 1 -x 30.000000 -y 50.000000 -U 70.000000 -V 0.000000 -T 2.428571
n -t 0.000000 -s 2 -x 10.000000 -y 50.000000 -U 70.000000 -V 0.000000 -T 2.714286
n -t 0.000000 -s 3 -x 20.000000 -y 25.000000 -U 65.000000 -V 0.000000 -T 2.769231
n -t 0.000000 -s 4 -x 20.000000 -y 50.000000 -U 75.000000 -V 0.000000 -T 2.400000
n -t 0.000000 -s 5 -x 40.000000 -y 50.000000 -U 90.000000 -V 0.000000 -T 1.777778
n -t 0.000000 -s 6 -x 50.000000 -y 25.000000 -U 120.000000 -V 0.000000 -T 1.250000
n -t 0.000000 -s 7 -x 60.000000 -y 25.000000 -U 60.000000 -V 0.000000 -T 2.333333
n -t 0.000000 -s 8 -x 60.000000 -y 50.000000 -U 95.000000 -V 0.000000 -T 1.473684
n -t 0.000000 -s 9 -x 80.000000 -y 50.000000 -U 110.000000 -V 0.000000 -T 1.090909
+ -t 0.087337168 -s 5 -d -1 -p message -e 32 -c 2 -a 0 -i 0 -k RTR 
- -t 0.087337168 -s 5 -d -1 -p message -e 32 -c 2 -a 0 -i 0 -k RTR
h -t 0.087337168 -s 5 -d -1 -p message -e 32 -c 2 -a 0 -i 0 -k RTR
r -t 0.088477207 -s 1 -d -1 -p message -e 32 -c 2 -a 0 -i 0 -k RTR
r -t 0.088477236 -s 8 -d -1 -p message -e 32 -c 2 -a 0 -i 0 -k RTR
r -t 0.088477239 -s 4 -d -1 -p message -e 32 -c 2 -a 0 -i 0 -k RTR
r -t 0.088477261 -s 6 -d -1 -p message -e 32 -c 2 -a 0 -i 0 -k RTR
r -t 0.088477269 -s 7 -d -1 -p message -e 32 -c 2 -a 0 -i 0 -k RTR
r -t 0.088477274 -s 2 -d -1 -p message -e 32 -c 2 -a 0 -i 0 -k RTR
r -t 0.088477279 -s 3 -d -1 -p message -e 32 -c 2 -a 0 -i 0 -k RTR
r -t 0.088477307 -s 9 -d -1 -p message -e 32 -c 2 -a 0 -i 0 -k RTR
+ -t 0.230197377 -s 7 -d -1 -p message -e 32 -c 2 -a 0 -i 1 -k RTR 
- -t 0.230197377 -s 7 -d -1 -p message -e 32 -c 2 -a 0 -i 1 -k RTR
h -t 0.230197377 -s 7 -d -1 -p message -e 32 -c 2 -a 0 -i 1 -k RTR
r -t 0.231257389 -s 6 -d -1 -p message -e 32 -c 2 -a 0 -i 1 -k RTR
r -t 0.231257464 -s 8 -d -1 -p message -e 32 -c 2 -a 0 -i 1 -k RTR
r -t 0.231257471 -s 5 -d -1 -p message -e 32 -c 2 -a 0 -i 1 -k RTR
r -t 0.231257501 -s 1 -d -1 -p message -e 32 -c 2 -a 0 -i 1 -k RTR
r -t 0.231257506 -s 3 -d -1 -p message -e 32 -c 2 -a 0 -i 1 -k RTR
r -t 0.231257511 -s 9 -d -1 -p message -e 32 -c 2 -a 0 -i 1 -k RTR
r -t 0.231257524 -s 4 -d -1 -p message -e 32 -c 2 -a 0 -i 1 -k RTR
r -t 0.231257556 -s 2 -d -1 -p message -e 32 -c 2 -a 0 -i 1 -k RTR
+ -t 0.335213882 -s 4 -d -1 -p message -e 32 -c 2 -a 0 -i 2 -k RTR 
- -t 0.335213882 -s 4 -d -1 -p message -e 32 -c 2 -a 0 -i 2 -k RTR
h -t 0.335213882 -s 4 -d -1 -p message -e 32 -c 2 -a 0 -i 2 -k RTR
r -t 0.336433909 -s 1 -d -1 -p message -e 32 -c 2 -a 0 -i 2 -k RTR
r -t 0.336433920 -s 2 -d -1 -p message -e 32 -c 2 -a 0 -i 2 -k RTR
r -t 0.336433965 -s 5 -d -1 -p message -e 32 -c 2 -a 0 -i 2 -k RTR
r -t 0.336433966 -s 3 -d -1 -p message -e 32 -c 2 -a 0 -i 2 -k RTR
r -t 0.336434025 -s 7 -d -1 -p message -e 32 -c 2 -a 0 -i 2 -k RTR
r -t 0.336434037 -s 8 -d -1 -p message -e 32 -c 2 -a 0 -i 2 -k RTR
r -t 0.336434053 -s 6 -d -1 -p message -e 32 -c 2 -a 0 -i 2 -k RTR
r -t 0.336434121 -s 9 -d -1 -p message -e 32 -c 2 -a 0 -i 2 -k RTR
+ -t 0.471615760 -s 0 -d -1 -p message -e 32 -c 2 -a 0 -i 3 -k RTR 
- -t 0.471615760 -s 0 -d -1 -p message -e 32 -c 2 -a 0 -i 3 -k RTR
h -t 0.471615760 -s 0 -d -1 -p message -e 32 -c 2 -a 0 -i 3 -k RTR
n -t 0.5 -s 1 -S COLOR -c red -o red -i red -I red
n -t 0.5 -s 2 -S COLOR -c red -o red -i red -I red
n -t 0.5 -s 4 -S COLOR -c red -o red -i red -I red
n -t 0.5 -s 6 -S COLOR -c red -o red -i red -I red
n -t 0.5 -s 0 -S COLOR -c blue -o blue -i blue -I blue
n -t 0.5 -s 3 -S COLOR -c blue -o blue -i blue -I blue
n -t 0.5 -s 7 -S COLOR -c blue -o blue -i blue -I blue
n -t 0.5 -s 9 -S COLOR -c blue -o blue -i blue -I blue
+ -t 0.627207570 -s 2 -d -1 -p message -e 32 -c 2 -a 0 -i 4 -k RTR 
- -t 0.627207570 -s 2 -d -1 -p message -e 32 -c 2 -a 0 -i 4 -k RTR
h -t 0.627207570 -s 2 -d -1 -p message -e 32 -c 2 -a 0 -i 4 -k RTR
r -t 0.628307614 -s 4 -d -1 -p message -e 32 -c 2 -a 0 -i 4 -k RTR
r -t 0.628307637 -s 1 -d -1 -p message -e 32 -c 2 -a 0 -i 4 -k RTR
r -t 0.628307657 -s 3 -d -1 -p message -e 32 -c 2 -a 0 -i 4 -k RTR
r -t 0.628307712 -s 5 -d -1 -p message -e 32 -c 2 -a 0 -i 4 -k RTR
r -t 0.628307738 -s 7 -d -1 -p message -e 32 -c 2 -a 0 -i 4 -k RTR
r -t 0.628307789 -s 8 -d -1 -p message -e 32 -c 2 -a 0 -i 4 -k RTR
r -t 0.628307822 -s 6 -d -1 -p message -e 32 -c 2 -a 0 -i 4 -k RTR
r -t 0.628307887 -s 9 -d -1 -p message -e 32 -c 2 -a 0 -i 4 -k RTR
+ -t 0.849187125 -s 9 -d -1 -p message -e 32 -c 2 -a 0 -i 5 -k RTR 
- -t 0.849187125 -s 9 -d -1 -p message -e 32 -c 2 -a 0 -i 5 -k RTR
h -t 0.849187125 -s 9 -d -1 -p message -e 32 -c 2 -a 0 -i 5 -k RTR
r -t 0.850227234 -s 8 -d -1 -p message -e 32 -c 2 -a 0 -i 5 -k RTR
r -t 0.850227235 -s 6 -d -1 -p message -e 32 -c 2 -a 0 -i 5 -k RTR
r -t 0.850227315 -s 5 -d -1 -p message -e 32 -c 2 -a 0 -i 5 -k RTR
r -t 0.850227349 -s 7 -d -1 -p message -e 32 -c 2 -a 0 -i 5 -k RTR
r -t 0.850227405 -s 1 -d -1 -p message -e 32 -c 2 -a 0 -i 5 -k RTR
r -t 0.850227424 -s 4 -d -1 -p message -e 32 -c 2 -a 0 -i 5 -k RTR
r -t 0.850227463 -s 3 -d -1 -p message -e 32 -c 2 -a 0 -i 5 -k RTR
r -t 0.850227472 -s 2 -d -1 -p message -e 32 -c 2 -a 0 -i 5 -k RTR
+ -t 1.278850600 -s 1 -d -1 -p message -e 32 -c 2 -a 0 -i 6 -k RTR 
- -t 1.278850600 -s 1 -d -1 -p message -e 32 -c 2 -a 0 -i 6 -k RTR
h -t 1.278850600 -s 1 -d -1 -p message -e 32 -c 2 -a 0 -i 6 -k RTR
r -t 1.279790612 -s 4 -d -1 -p message -e 32 -c 2 -a 0 -i 6 -k RTR
r -t 1.279790666 -s 2 -d -1 -p message -e 32 -c 2 -a 0 -i 6 -k RTR
r -t 1.279790699 -s 3 -d -1 -p message -e 32 -c 2 -a 0 -i 6 -k RTR
r -t 1.279790701 -s 7 -d -1 -p message -e 32 -c 2 -a 0 -i 6 -k RTR
r -t 1.279790718 -s 5 -d -1 -p message -e 32 -c 2 -a 0 -i 6 -k RTR
r -t 1.279790806 -s 8 -d -1 -p message -e 32 -c 2 -a 0 -i 6 -k RTR
r -t 1.279790868 -s 9 -d -1 -p message -e 32 -c 2 -a 0 -i 6 -k RTR
r -t 1.279790881 -s 6 -d -1 -p message -e 32 -c 2 -a 0 -i 6 -k RTR
+ -t 1.283491946 -s 6 -d -1 -p message -e 32 -c 2 -a 0 -i 7 -k RTR 
- -t 1.283491946 -s 6 -d -1 -p message -e 32 -c 2 -a 0 -i 7 -k RTR
h -t 1.283491946 -s 6 -d -1 -p message -e 32 -c 2 -a 0 -i 7 -k RTR
r -t 1.284492029 -s 9 -d -1 -p message -e 32 -c 2 -a 0 -i 7 -k RTR
r -t 1.284492049 -s 8 -d -1 -p message -e 32 -c 2 -a 0 -i 7 -k RTR
r -t 1.284492116 -s 5 -d -1 -p message -e 32 -c 2 -a 0 -i 7 -k RTR
r -t 1.284492156 -s 7 -d -1 -p message -e 32 -c 2 -a 0 -i 7 -k RTR
r -t 1.284492226 -s 1 -d -1 -p message -e 32 -c 2 -a 0 -i 7 -k RTR
r -t 1.284492237 -s 4 -d -1 -p message -e 32 -c 2 -a 0 -i 7 -k RTR
r -t 1.284492268 -s 3 -d -1 -p message -e 32 -c 2 -a 0 -i 7 -k RTR
r -t 1.284492290 -s 2 -d -1 -p message -e 32 -c 2 -a 0 -i 7 -k RTR
+ -t 1.679633806 -s 3 -d -1 -p message -e 32 -c 2 -a 0 -i 8 -k RTR 
- -t 1.679633806 -s 3 -d -1 -p message -e 32 -c 2 -a 0 -i 8 -k RTR
h -t 1.679633806 -s 3 -d -1 -p message -e 32 -c 2 -a 0 -i 8 -k RTR
r -t 1.680673890 -s 2 -d -1 -p message -e 32 -c 2 -a 0 -i 8 -k RTR
r -t 1.680673907 -s 4 -d -1 -p message -e 32 -c 2 -a 0 -i 8 -k RTR
r -t 1.680673910 -s 1 -d -1 -p message -e 32 -c 2 -a 0 -i 8 -k RTR
r -t 1.680673911 -s 7 -d -1 -p message -e 32 -c 2 -a 0 -i 8 -k RTR
r -t 1.680674029 -s 5 -d -1 -p message -e 32 -c 2 -a 0 -i 8 -k RTR
r -t 1.680674042 -s 6 -d -1 -p message -e 32 -c 2 -a 0 -i 8 -k RTR
r -t 1.680674056 -s 8 -d -1 -p message -e 32 -c 2 -a 0 -i 8 -k RTR
r -t 1.680674056 -s 9 -d -1 -p message -e 32 -c 2 -a 0 -i 8 -k RTR
+ -t 1.725003792 -s 8 -d -1 -p message -e 32 -c 2 -a 0 -i 9 -k RTR 
- -t 1.725003792 -s 8 -d -1 -p message -e 32 -c 2 -a 0 -i 9 -k RTR
h -t 1.725003792 -s 8 -d -1 -p message -e 32 -c 2 -a 0 -i 9 -k RTR
r -t 1.725903792 -s 9 -d -1 -p message -e 32 -c 2 -a 0 -i 9 -k RTR
r -t 1.725903807 -s 5 -d -1 -p message -e 32 -c 2 -a 0 -i 9 -k RTR
r -t 1.725903875 -s 6 -d -1 -p message -e 32 -c 2 -a 0 -i 9 -k RTR
r -t 1.725903939 -s 7 -d -1 -p message -e 32 -c 2 -a 0 -i 9 -k RTR
r -t 1.725903956 -s 1 -d -1 -p message -e 32 -c 2 -a 0 -i 9 -k RTR
r -t 1.725903960 -s 4 -d -1 -p message -e 32 -c 2 -a 0 -i 9 -k RTR
r -t 1.725904022 -s 2 -d -1 -p message -e 32 -c 2 -a 0 -i 9 -k RTR
r -t 1.725904033 -s 3 -d -1 -p message -e 32 -c 2 -a 0 -i 9 -k RTR
+ -t 2.000000000 -s 5 -d -1 -p tcp -e 40 -c 2 -a 0 -i 10 -k AGT 
- -t 2.000000000 -s 5 -d -1 -p tcp -e 40 -c 2 -a 0 -i 10 -k AGT
h -t 2.000000000 -s 5 -d -1 -p tcp -e 40 -c 2 -a 0 -i 10 -k AGT
+ -t 2.000000000 -s 5 -d 1 -p tcp -e 60 -c 2 -a 0 -i 10 -k RTR 
- -t 2.000000000 -s 5 -d 1 -p tcp -e 60 -c 2 -a 0 -i 10 -k RTR
h -t 2.000000000 -s 5 -d 1 -p tcp -e 60 -c 2 -a 0 -i 10 -k RTR
+ -t 2.000000000 -s 5 -d -1 -p tcp -e 40 -c 2 -a 0 -i 11 -k AGT 
- -t 2.000000000 -s 5 -d -1 -p tcp -e 40 -c 2 -a 0 -i 11 -k AGT
h -t 2.000000000 -s 5 -d -1 -p tcp -e 40 -c 2 -a 0 -i 11 -k AGT
+ -t 2.000000000 -s 5 -d 2 -p tcp -e 60 -c 2 -a 0 -i 11 -k RTR 
- -t 2.000000000 -s 5 -d 2 -p tcp -e 60 -c 2 -a 0 -i 11 -k RTR
h -t 2.000000000 -s 5 -d 2 -p tcp -e 60 -c 2 -a 0 -i 11 -k RTR
+ -t 2.000000000 -s 5 -d -1 -p tcp -e 40 -c 2 -a 0 -i 12 -k AGT 
- -t 2.000000000 -s 5 -d -1 -p tcp -e 40 -c 2 -a 0 -i 12 -k AGT
h -t 2.000000000 -s 5 -d -1 -p tcp -e 40 -c 2 -a 0 -i 12 -k AGT
+ -t 2.000000000 -s 5 -d 4 -p tcp -e 60 -c 2 -a 0 -i 12 -k RTR 
- -t 2.000000000 -s 5 -d 4 -p tcp -e 60 -c 2 -a 0 -i 12 -k RTR
h -t 2.000000000 -s 5 -d 4 -p tcp -e 60 -c 2 -a 0 -i 12 -k RTR
+ -t 2.000000000 -s 5 -d -1 -p tcp -e 40 -c 2 -a 0 -i 13 -k AGT 
- -t 2.000000000 -s 5 -d -1 -p tcp -e 40 -c 2 -a 0 -i 13 -k AGT
h -t 2.000000000 -s 5 -d -1 -p tcp -e 40 -c 2 -a 0 -i 13 -k AGT
+ -t 2.000000000 -s 5 -d 6 -p tcp -e 60 -c 2 -a 0 -i 13 -k RTR 
- -t 2.000000000 -s 5 -d 6 -p tcp -e 60 -c 2 -a 0 -i 13 -k RTR
h -t 2.000000000 -s 5 -d 6 -p tcp -e 60 -c 2 -a 0 -i 13 -k RTR
+ -t 2.000000000 -s 8 -d -1 -p tcp -e 40 -c 2 -a 0 -i 14 -k AGT 
- -t 2.000000000 -s 8 -d -1 -p tcp -e 40 -c 2 -a 0 -i 14 -k AGT
h -t 2.000000000 -s 8 -d -1 -p tcp -e 40 -c 2 -a 0 -i 14 -k AGT
+ -t 2.000000000 -s 8 -d -1 -p tcp -e 40 -c 2 -a 0 -i 15 -k AGT 
- -t 2.000000000 -s 8 -d -1 -p tcp -e 40 -c 2 -a 0 -i 15 -k AGT
h -t 2.000000000 -s 8 -d -1 -p tcp -e 40 -c 2 -a 0 -i 15 -k AGT
+ -t 2.000000000 -s 8 -d 3 -p tcp -e 60 -c 2 -a 0 -i 15 -k RTR 
- -t 2.000000000 -s 8 -d 3 -p tcp -e 60 -c 2 -a 0 -i 15 -k RTR
h -t 2.000000000 -s 8 -d 3 -p tcp -e 60 -c 2 -a 0 -i 15 -k RTR
+ -t 2.000000000 -s 8 -d -1 -p tcp -e 40 -c 2 -a 0 -i 16 -k AGT 
- -t 2.000000000 -s 8 -d -1 -p tcp -e 40 -c 2 -a 0 -i 16 -k AGT
h -t 2.000000000 -s 8 -d -1 -p tcp -e 40 -c 2 -a 0 -i 16 -k AGT
+ -t 2.000000000 -s 8 -d 7 -p tcp -e 60 -c 2 -a 0 -i 16 -k RTR 
- -t 2.000000000 -s 8 -d 7 -p tcp -e 60 -c 2 -a 0 -i 16 -k RTR
h -t 2.000000000 -s 8 -d 7 -p tcp -e 60 -c 2 -a 0 -i 16 -k RTR
+ -t 2.000000000 -s 8 -d -1 -p tcp -e 40 -c 2 -a 0 -i 17 -k AGT 
- -t 2.000000000 -s 8 -d -1 -p tcp -e 40 -c 2 -a 0 -i 17 -k AGT
h -t 2.000000000 -s 8 -d -1 -p tcp -e 40 -c 2 -a 0 -i 17 -k AGT
+ -t 2.000000000 -s 8 -d 9 -p tcp -e 60 -c 2 -a 0 -i 17 -k RTR 
- -t 2.000000000 -s 8 -d 9 -p tcp -e 60 -c 2 -a 0 -i 17 -k RTR
h -t 2.000000000 -s 8 -d 9 -p tcp -e 60 -c 2 -a 0 -i 17 -k RTR
r -t 2.016513507 -s 1 -d 1 -p tcp -e 60 -c 2 -a 0 -i 10 -k AGT
+ -t 2.016513507 -s 1 -d -1 -p ack -e 40 -c 2 -a 0 -i 18 -k AGT 
- -t 2.016513507 -s 1 -d -1 -p ack -e 40 -c 2 -a 0 -i 18 -k AGT
h -t 2.016513507 -s 1 -d -1 -p ack -e 40 -c 2 -a 0 -i 18 -k AGT
+ -t 2.016513507 -s 1 -d 5 -p ack -e 60 -c 2 -a 0 -i 18 -k RTR 
- -t 2.016513507 -s 1 -d 5 -p ack -e 60 -c 2 -a 0 -i 18 -k RTR
h -t 2.016513507 -s 1 -d 5 -p ack -e 60 -c 2 -a 0 -i 18 -k RTR
r -t 2.018517917 -s 7 -d 7 -p tcp -e 60 -c 2 -a 0 -i 16 -k AGT
+ -t 2.018517917 -s 7 -d -1 -p ack -e 40 -c 2 -a 0 -i 19 -k AGT 
- -t 2.018517917 -s 7 -d -1 -p ack -e 40 -c 2 -a 0 -i 19 -k AGT
h -t 2.018517917 -s 7 -d -1 -p ack -e 40 -c 2 -a 0 -i 19 -k AGT
+ -t 2.018517917 -s 7 -d 8 -p ack -e 60 -c 2 -a 0 -i 19 -k RTR 
- -t 2.018517917 -s 7 -d 8 -p ack -e 60 -c 2 -a 0 -i 19 -k RTR
h -t 2.018517917 -s 7 -d 8 -p ack -e 60 -c 2 -a 0 -i 19 -k RTR
r -t 2.020542293 -s 5 -d 5 -p ack -e 60 -c 2 -a 0 -i 18 -k AGT
+ -t 2.020542293 -s 5 -d -1 -p tcp -e 1040 -c 2 -a 0 -i 20 -k AGT 
- -t 2.020542293 -s 5 -d -1 -p tcp -e 1040 -c 2 -a 0 -i 20 -k AGT
h -t 2.020542293 -s 5 -d -1 -p tcp -e 1040 -c 2 -a 0 -i 20 -k AGT
+ -t 2.020542293 -s 5 -d 1 -p tcp -e 1060 -c 2 -a 0 -i 20 -k RTR 
- -t 2.020542293 -s 5 -d 1 -p tcp -e 1060 -c 2 -a 0 -i 20 -k RTR
h -t 2.020542293 -s 5 -d 1 -p tcp -e 1060 -c 2 -a 0 -i 20 -k RTR
+ -t 2.020542293 -s 5 -d -1 -p tcp -e 1040 -c 2 -a 0 -i 21 -k AGT 
- -t 2.020542293 -s 5 -d -1 -p tcp -e 1040 -c 2 -a 0 -i 21 -k AGT
h -t 2.020542293 -s 5 -d -1 -p tcp -e 1040 -c 2 -a 0 -i 21 -k AGT
+ -t 2.020542293 -s 5 -d 1 -p tcp -e 1060 -c 2 -a 0 -i 21 -k RTR 
- -t 2.020542293 -s 5 -d 1 -p tcp -e 1060 -c 2 -a 0 -i 21 -k RTR
h -t 2.020542293 -s 5 -d 1 -p tcp -e 1060 -c 2 -a 0 -i 21 -k RTR
r -t 2.022606709 -s 8 -d 8 -p ack -e 60 -c 2 -a 0 -i 19 -k AGT
+ -t 2.022606709 -s 8 -d -1 -p tcp -e 1040 -c 2 -a 0 -i 22 -k AGT 
- -t 2.022606709 -s 8 -d -1 -p tcp -e 1040 -c 2 -a 0 -i 22 -k AGT
h -t 2.022606709 -s 8 -d -1 -p tcp -e 1040 -c 2 -a 0 -i 22 -k AGT
+ -t 2.022606709 -s 8 -d 7 -p tcp -e 1060 -c 2 -a 0 -i 22 -k RTR 
- -t 2.022606709 -s 8 -d 7 -p tcp -e 1060 -c 2 -a 0 -i 22 -k RTR
h -t 2.022606709 -s 8 -d 7 -p tcp -e 1060 -c 2 -a 0 -i 22 -k RTR
+ -t 2.022606709 -s 8 -d -1 -p tcp -e 1040 -c 2 -a 0 -i 23 -k AGT 
- -t 2.022606709 -s 8 -d -1 -p tcp -e 1040 -c 2 -a 0 -i 23 -k AGT
h -t 2.022606709 -s 8 -d -1 -p tcp -e 1040 -c 2 -a 0 -i 23 -k AGT
+ -t 2.022606709 -s 8 -d 7 -p tcp -e 1060 -c 2 -a 0 -i 23 -k RTR 
- -t 2.022606709 -s 8 -d 7 -p tcp -e 1060 -c 2 -a 0 -i 23 -k RTR
h -t 2.022606709 -s 8 -d 7 -p tcp -e 1060 -c 2 -a 0 -i 23 -k RTR
r -t 2.026759525 -s 2 -d 2 -p tcp -e 60 -c 2 -a 0 -i 11 -k AGT
+ -t 2.026759525 -s 2 -d -1 -p ack -e 40 -c 2 -a 0 -i 24 -k AGT 
- -t 2.026759525 -s 2 -d -1 -p ack -e 40 -c 2 -a 0 -i 24 -k AGT
h -t 2.026759525 -s 2 -d -1 -p ack -e 40 -c 2 -a 0 -i 24 -k AGT
+ -t 2.026759525 -s 2 -d 5 -p ack -e 60 -c 2 -a 0 -i 24 -k RTR 
- -t 2.026759525 -s 2 -d 5 -p ack -e 60 -c 2 -a 0 -i 24 -k RTR
h -t 2.026759525 -s 2 -d 5 -p ack -e 60 -c 2 -a 0 -i 24 -k RTR
r -t 2.028783685 -s 9 -d 9 -p tcp -e 60 -c 2 -a 0 -i 17 -k AGT
+ -t 2.028783685 -s 9 -d -1 -p ack -e 40 -c 2 -a 0 -i 25 -k AGT 
- -t 2.028783685 -s 9 -d -1 -p ack -e 40 -c 2 -a 0 -i 25 -k AGT
h -t 2.028783685 -s 9 -d -1 -p ack -e 40 -c 2 -a 0 -i 25 -k AGT
+ -t 2.028783685 -s 9 -d 8 -p ack -e 60 -c 2 -a 0 -i 25 -k RTR 
- -t 2.028783685 -s 9 -d 8 -p ack -e 60 -c 2 -a 0 -i 25 -k RTR
h -t 2.028783685 -s 9 -d 8 -p ack -e 60 -c 2 -a 0 -i 25 -k RTR
r -t 2.030808227 -s 3 -d 3 -p tcp -e 60 -c 2 -a 0 -i 15 -k AGT
+ -t 2.030808227 -s 3 -d -1 -p ack -e 40 -c 2 -a 0 -i 26 -k AGT 
- -t 2.030808227 -s 3 -d -1 -p ack -e 40 -c 2 -a 0 -i 26 -k AGT
h -t 2.030808227 -s 3 -d -1 -p ack -e 40 -c 2 -a 0 -i 26 -k AGT
+ -t 2.030808227 -s 3 -d 8 -p ack -e 60 -c 2 -a 0 -i 26 -k RTR 
- -t 2.030808227 -s 3 -d 8 -p ack -e 60 -c 2 -a 0 -i 26 -k RTR
h -t 2.030808227 -s 3 -d 8 -p ack -e 60 -c 2 -a 0 -i 26 -k RTR
r -t 2.033799044 -s 5 -d 5 -p ack -e 60 -c 2 -a 0 -i 24 -k AGT
+ -t 2.033799044 -s 5 -d -1 -p tcp -e 1040 -c 2 -a 0 -i 27 -k AGT 
- -t 2.033799044 -s 5 -d -1 -p tcp -e 1040 -c 2 -a 0 -i 27 -k AGT
h -t 2.033799044 -s 5 -d -1 -p tcp -e 1040 -c 2 -a 0 -i 27 -k AGT
+ -t 2.033799044 -s 5 -d 2 -p tcp -e 1060 -c 2 -a 0 -i 27 -k RTR 
- -t 2.033799044 -s 5 -d 2 -p tcp -e 1060 -c 2 -a 0 -i 27 -k RTR
h -t 2.033799044 -s 5 -d 2 -p tcp -e 1060 -c 2 -a 0 -i 27 -k RTR
+ -t 2.033799044 -s 5 -d -1 -p tcp -e 1040 -c 2 -a 0 -i 28 -k AGT 
- -t 2.033799044 -s 5 -d -1 -p tcp -e 1040 -c 2 -a 0 -i 28 -k AGT
h -t 2.033799044 -s 5 -d -1 -p tcp -e 1040 -c 2 -a 0 -i 28 -k AGT
+ -t 2.033799044 -s 5 -d 2 -p tcp -e 1060 -c 2 -a 0 -i 28 -k RTR 
- -t 2.033799044 -s 5 -d 2 -p tcp -e 1060 -c 2 -a 0 -i 28 -k RTR
h -t 2.033799044 -s 5 -d 2 -p tcp -e 1060 -c 2 -a 0 -i 28 -k RTR
r -t 2.035843044 -s 8 -d 8 -p ack -e 60 -c 2 -a 0 -i 25 -k AGT
+ -t 2.035843044 -s 8 -d -1 -p tcp -e 1040 -c 2 -a 0 -i 29 -k AGT 
- -t 2.035843044 -s 8 -d -1 -p tcp -e 1040 -c 2 -a 0 -i 29 -k AGT
h -t 2.035843044 -s 8 -d -1 -p tcp -e 1040 -c 2 -a 0 -i 29 -k AGT
+ -t 2.035843044 -s 8 -d 9 -p tcp -e 1060 -c 2 -a 0 -i 29 -k RTR 
- -t 2.035843044 -s 8 -d 9 -p tcp -e 1060 -c 2 -a 0 -i 29 -k RTR
h -t 2.035843044 -s 8 -d 9 -p tcp -e 1060 -c 2 -a 0 -i 29 -k RTR
+ -t 2.035843044 -s 8 -d -1 -p tcp -e 1040 -c 2 -a 0 -i 30 -k AGT 
- -t 2.035843044 -s 8 -d -1 -p tcp -e 1040 -c 2 -a 0 -i 30 -k AGT
h -t 2.035843044 -s 8 -d -1 -p tcp -e 1040 -c 2 -a 0 -i 30 -k AGT
+ -t 2.035843044 -s 8 -d 9 -p tcp -e 1060 -c 2 -a 0 -i 30 -k RTR 
- -t 2.035843044 -s 8 -d 9 -p tcp -e 1060 -c 2 -a 0 -i 30 -k RTR
h -t 2.035843044 -s 8 -d 9 -p tcp -e 1060 -c 2 -a 0 -i 30 -k RTR
r -t 2.045927318 -s 1 -d 1 -p tcp -e 1060 -c 2 -a 0 -i 20 -k AGT
+ -t 2.045927318 -s 1 -d -1 -p ack -e 40 -c 2 -a 0 -i 31 -k AGT 
- -t 2.045927318 -s 1 -d -1 -p ack -e 40 -c 2 -a 0 -i 31 -k AGT
h -t 2.045927318 -s 1 -d -1 -p ack -e 40 -c 2 -a 0 -i 31 -k AGT
+ -t 2.045927318 -s 1 -d 5 -p ack -e 60 -c 2 -a 0 -i 31 -k RTR 
- -t 2.045927318 -s 1 -d 5 -p ack -e 60 -c 2 -a 0 -i 31 -k RTR
h -t 2.045927318 -s 1 -d 5 -p ack -e 60 -c 2 -a 0 -i 31 -k RTR
r -t 2.048031586 -s 5 -d 5 -p ack -e 60 -c 2 -a 0 -i 31 -k AGT
+ -t 2.048031586 -s 5 -d -1 -p tcp -e 1040 -c 2 -a 0 -i 32 -k AGT 
- -t 2.048031586 -s 5 -d -1 -p tcp -e 1040 -c 2 -a 0 -i 32 -k AGT
h -t 2.048031586 -s 5 -d -1 -p tcp -e 1040 -c 2 -a 0 -i 32 -k AGT
+ -t 2.048031586 -s 5 -d 1 -p tcp -e 1060 -c 2 -a 0 -i 32 -k RTR 
- -t 2.048031586 -s 5 -d 1 -p tcp -e 1060 -c 2 -a 0 -i 32 -k RTR
h -t 2.048031586 -s 5 -d 1 -p tcp -e 1060 -c 2 -a 0 -i 32 -k RTR
+ -t 2.048031586 -s 5 -d -1 -p tcp -e 1040 -c 2 -a 0 -i 33 -k AGT 
- -t 2.048031586 -s 5 -d -1 -p tcp -e 1040 -c 2 -a 0 -i 33 -k AGT
h -t 2.048031586 -s 5 -d -1 -p tcp -e 1040 -c 2 -a 0 -i 33 -k AGT
+ -t 2.048031586 -s 5 -d 1 -p tcp -e 1060 -c 2 -a 0 -i 33 -k RTR 
- -t 2.048031586 -s 5 -d 1 -p tcp -e 1060 -c 2 -a 0 -i 33 -k RTR
h -t 2.048031586 -s 5 -d 1 -p tcp -e 1060 -c 2 -a 0 -i 33 -k RTR
r -t 2.058075851 -s 1 -d 1 -p tcp -e 1060 -c 2 -a 0 -i 21 -k AGT
+ -t 2.058075851 -s 1 -d -1 -p ack -e 40 -c 2 -a 0 -i 34 -k AGT 
- -t 2.058075851 -s 1 -d -1 -p ack -e 40 -c 2 -a 0 -i 34 -k AGT
h -t 2.058075851 -s 1 -d -1 -p ack -e 40 -c 2 -a 0 -i 34 -k AGT
+ -t 2.058075851 -s 1 -d 5 -p ack -e 60 -c 2 -a 0 -i 34 -k RTR 
- -t 2.058075851 -s 1 -d 5 -p ack -e 60 -c 2 -a 0 -i 34 -k RTR
h -t 2.058075851 -s 1 -d 5 -p ack -e 60 -c 2 -a 0 -i 34 -k RTR
r -t 2.060060188 -s 6 -d 6 -p tcp -e 60 -c 2 -a 0 -i 13 -k AGT
+ -t 2.060060188 -s 6 -d -1 -p ack -e 40 -c 2 -a 0 -i 35 -k AGT 
- -t 2.060060188 -s 6 -d -1 -p ack -e 40 -c 2 -a 0 -i 35 -k AGT
h -t 2.060060188 -s 6 -d -1 -p ack -e 40 -c 2 -a 0 -i 35 -k AGT
+ -t 2.060060188 -s 6 -d 5 -p ack -e 60 -c 2 -a 0 -i 35 -k RTR 
- -t 2.060060188 -s 6 -d 5 -p ack -e 60 -c 2 -a 0 -i 35 -k RTR
h -t 2.060060188 -s 6 -d 5 -p ack -e 60 -c 2 -a 0 -i 35 -k RTR
r -t 2.062104866 -s 8 -d 8 -p ack -e 60 -c 2 -a 0 -i 26 -k AGT
+ -t 2.062104866 -s 8 -d -1 -p tcp -e 1040 -c 2 -a 0 -i 36 -k AGT 
- -t 2.062104866 -s 8 -d -1 -p tcp -e 1040 -c 2 -a 0 -i 36 -k AGT
h -t 2.062104866 -s 8 -d -1 -p tcp -e 1040 -c 2 -a 0 -i 36 -k AGT
+ -t 2.062104866 -s 8 -d 3 -p tcp -e 1060 -c 2 -a 0 -i 36 -k RTR 
- -t 2.062104866 -s 8 -d 3 -p tcp -e 1060 -c 2 -a 0 -i 36 -k RTR
h -t 2.062104866 -s 8 -d 3 -p tcp -e 1060 -c 2 -a 0 -i 36 -k RTR
+ -t 2.062104866 -s 8 -d -1 -p tcp -e 1040 -c 2 -a 0 -i 37 -k AGT 
- -t 2.062104866 -s 8 -d -1 -p tcp -e 1040 -c 2 -a 0 -i 37 -k AGT
h -t 2.062104866 -s 8 -d -1 -p tcp -e 1040 -c 2 -a 0 -i 37 -k AGT
+ -t 2.062104866 -s 8 -d 3 -p tcp -e 1060 -c 2 -a 0 -i 37 -k RTR 
- -t 2.062104866 -s 8 -d 3 -p tcp -e 1060 -c 2 -a 0 -i 37 -k RTR
h -t 2.062104866 -s 8 -d 3 -p tcp -e 1060 -c 2 -a 0 -i 37 -k RTR
r -t 2.064169199 -s 5 -d 5 -p ack -e 60 -c 2 -a 0 -i 35 -k AGT
+ -t 2.064169199 -s 5 -d -1 -p tcp -e 1040 -c 2 -a 0 -i 38 -k AGT 
- -t 2.064169199 -s 5 -d -1 -p tcp -e 1040 -c 2 -a 0 -i 38 -k AGT
h -t 2.064169199 -s 5 -d -1 -p tcp -e 1040 -c 2 -a 0 -i 38 -k AGT
+ -t 2.064169199 -s 5 -d 6 -p tcp -e 1060 -c 2 -a 0 -i 38 -k RTR 
- -t 2.064169199 -s 5 -d 6 -p tcp -e 1060 -c 2 -a 0 -i 38 -k RTR
h -t 2.064169199 -s 5 -d 6 -p tcp -e 1060 -c 2 -a 0 -i 38 -k RTR
+ -t 2.064169199 -s 5 -d -1 -p tcp -e 1040 -c 2 -a 0 -i 39 -k AGT 
- -t 2.064169199 -s 5 -d -1 -p tcp -e 1040 -c 2 -a 0 -i 39 -k AGT
h -t 2.064169199 -s 5 -d -1 -p tcp -e 1040 -c 2 -a 0 -i 39 -k AGT
+ -t 2.064169199 -s 5 -d 6 -p tcp -e 1060 -c 2 -a 0 -i 39 -k RTR 
- -t 2.064169199 -s 5 -d 6 -p tcp -e 1060 -c 2 -a 0 -i 39 -k RTR
h -t 2.064169199 -s 5 -d 6 -p tcp -e 1060 -c 2 -a 0 -i 39 -k RTR
r -t 2.066193539 -s 5 -d 5 -p ack -e 60 -c 2 -a 0 -i 34 -k AGT
+ -t 2.066193539 -s 5 -d -1 -p tcp -e 1040 -c 2 -a 0 -i 40 -k AGT 
- -t 2.066193539 -s 5 -d -1 -p tcp -e 1040 -c 2 -a 0 -i 40 -k AGT
h -t 2.066193539 -s 5 -d -1 -p tcp -e 1040 -c 2 -a 0 -i 40 -k AGT
+ -t 2.066193539 -s 5 -d 1 -p tcp -e 1060 -c 2 -a 0 -i 40 -k RTR 
- -t 2.066193539 -s 5 -d 1 -p tcp -e 1060 -c 2 -a 0 -i 40 -k RTR
h -t 2.066193539 -s 5 -d 1 -p tcp -e 1060 -c 2 -a 0 -i 40 -k RTR
+ -t 2.066193539 -s 5 -d -1 -p tcp -e 1040 -c 2 -a 0 -i 41 -k AGT 
- -t 2.066193539 -s 5 -d -1 -p tcp -e 1040 -c 2 -a 0 -i 41 -k AGT
h -t 2.066193539 -s 5 -d -1 -p tcp -e 1040 -c 2 -a 0 -i 41 -k AGT
+ -t 2.066193539 -s 5 -d 1 -p tcp -e 1060 -c 2 -a 0 -i 41 -k RTR 
- -t 2.066193539 -s 5 -d 1 -p tcp -e 1060 -c 2 -a 0 -i 41 -k RTR
h -t 2.066193539 -s 5 -d 1 -p tcp -e 1060 -c 2 -a 0 -i 41 -k RTR
r -t 2.076357992 -s 2 -d 2 -p tcp -e 1060 -c 2 -a 0 -i 27 -k AGT
+ -t 2.076357992 -s 2 -d -1 -p ack -e 40 -c 2 -a 0 -i 42 -k AGT 
- -t 2.076357992 -s 2 -d -1 -p ack -e 40 -c 2 -a 0 -i 42 -k AGT
h -t 2.076357992 -s 2 -d -1 -p ack -e 40 -c 2 -a 0 -i 42 -k AGT
+ -t 2.076357992 -s 2 -d 5 -p ack -e 60 -c 2 -a 0 -i 42 -k RTR 
- -t 2.076357992 -s 2 -d 5 -p ack -e 60 -c 2 -a 0 -i 42 -k RTR
h -t 2.076357992 -s 2 -d 5 -p ack -e 60 -c 2 -a 0 -i 42 -k RTR
r -t 2.086462434 -s 7 -d 7 -p tcp -e 1060 -c 2 -a 0 -i 22 -k AGT
+ -t 2.086462434 -s 7 -d -1 -p ack -e 40 -c 2 -a 0 -i 43 -k AGT 
- -t 2.086462434 -s 7 -d -1 -p ack -e 40 -c 2 -a 0 -i 43 -k AGT
h -t 2.086462434 -s 7 -d -1 -p ack -e 40 -c 2 -a 0 -i 43 -k AGT
+ -t 2.086462434 -s 7 -d 8 -p ack -e 60 -c 2 -a 0 -i 43 -k RTR 
- -t 2.086462434 -s 7 -d 8 -p ack -e 60 -c 2 -a 0 -i 43 -k RTR
h -t 2.086462434 -s 7 -d 8 -p ack -e 60 -c 2 -a 0 -i 43 -k RTR
r -t 2.088466724 -s 8 -d 8 -p ack -e 60 -c 2 -a 0 -i 43 -k AGT
+ -t 2.088466724 -s 8 -d -1 -p tcp -e 1040 -c 2 -a 0 -i 44 -k AGT 
- -t 2.088466724 -s 8 -d -1 -p tcp -e 1040 -c 2 -a 0 -i 44 -k AGT
h -t 2.088466724 -s 8 -d -1 -p tcp -e 1040 -c 2 -a 0 -i 44 -k AGT
+ -t 2.088466724 -s 8 -d 7 -p tcp -e 1060 -c 2 -a 0 -i 44 -k RTR 
- -t 2.088466724 -s 8 -d 7 -p tcp -e 1060 -c 2 -a 0 -i 44 -k RTR
h -t 2.088466724 -s 8 -d 7 -p tcp -e 1060 -c 2 -a 0 -i 44 -k RTR
+ -t 2.088466724 -s 8 -d -1 -p tcp -e 1040 -c 2 -a 0 -i 45 -k AGT 
- -t 2.088466724 -s 8 -d -1 -p tcp -e 1040 -c 2 -a 0 -i 45 -k AGT
h -t 2.088466724 -s 8 -d -1 -p tcp -e 1040 -c 2 -a 0 -i 45 -k AGT
+ -t 2.088466724 -s 8 -d 7 -p tcp -e 1060 -c 2 -a 0 -i 45 -k RTR 
- -t 2.088466724 -s 8 -d 7 -p tcp -e 1060 -c 2 -a 0 -i 45 -k RTR
h -t 2.088466724 -s 8 -d 7 -p tcp -e 1060 -c 2 -a 0 -i 45 -k RTR
r -t 2.098491162 -s 2 -d 2 -p tcp -e 1060 -c 2 -a 0 -i 28 -k AGT
+ -t 2.098491162 -s 2 -d -1 -p ack -e 40 -c 2 -a 0 -i 46 -k AGT 
- -t 2.098491162 -s 2 -d -1 -p ack -e 40 -c 2 -a 0 -i 46 -k AGT
h -t 2.098491162 -s 2 -d -1 -p ack -e 40 -c 2 -a 0 -i 46 -k AGT
+ -t 2.098491162 -s 2 -d 5 -p ack -e 60 -c 2 -a 0 -i 46 -k RTR 
- -t 2.098491162 -s 2 -d 5 -p ack -e 60 -c 2 -a 0 -i 46 -k RTR
h -t 2.098491162 -s 2 -d 5 -p ack -e 60 -c 2 -a 0 -i 46 -k RTR
r -t 2.108475536 -s 1 -d 1 -p tcp -e 1060 -c 2 -a 0 -i 32 -k AGT
+ -t 2.108475536 -s 1 -d -1 -p ack -e 40 -c 2 -a 0 -i 47 -k AGT 
- -t 2.108475536 -s 1 -d -1 -p ack -e 40 -c 2 -a 0 -i 47 -k AGT
h -t 2.108475536 -s 1 -d -1 -p ack -e 40 -c 2 -a 0 -i 47 -k AGT
+ -t 2.108475536 -s 1 -d 5 -p ack -e 60 -c 2 -a 0 -i 47 -k RTR 
- -t 2.108475536 -s 1 -d 5 -p ack -e 60 -c 2 -a 0 -i 47 -k RTR
h -t 2.108475536 -s 1 -d 5 -p ack -e 60 -c 2 -a 0 -i 47 -k RTR
r -t 2.118519834 -s 1 -d 1 -p tcp -e 1060 -c 2 -a 0 -i 33 -k AGT
+ -t 2.118519834 -s 1 -d -1 -p ack -e 40 -c 2 -a 0 -i 48 -k AGT 
- -t 2.118519834 -s 1 -d -1 -p ack -e 40 -c 2 -a 0 -i 48 -k AGT
h -t 2.118519834 -s 1 -d -1 -p ack -e 40 -c 2 -a 0 -i 48 -k AGT
+ -t 2.118519834 -s 1 -d 5 -p ack -e 60 -c 2 -a 0 -i 48 -k RTR 
- -t 2.118519834 -s 1 -d 5 -p ack -e 60 -c 2 -a 0 -i 48 -k RTR
h -t 2.118519834 -s 1 -d 5 -p ack -e 60 -c 2 -a 0 -i 48 -k RTR
r -t 2.120624317 -s 5 -d 5 -p ack -e 60 -c 2 -a 0 -i 42 -k AGT
+ -t 2.120624317 -s 5 -d -1 -p tcp -e 1040 -c 2 -a 0 -i 49 -k AGT 
- -t 2.120624317 -s 5 -d -1 -p tcp -e 1040 -c 2 -a 0 -i 49 -k AGT
h -t 2.120624317 -s 5 -d -1 -p tcp -e 1040 -c 2 -a 0 -i 49 -k AGT
+ -t 2.120624317 -s 5 -d 2 -p tcp -e 1060 -c 2 -a 0 -i 49 -k RTR 
- -t 2.120624317 -s 5 -d 2 -p tcp -e 1060 -c 2 -a 0 -i 49 -k RTR
h -t 2.120624317 -s 5 -d 2 -p tcp -e 1060 -c 2 -a 0 -i 49 -k RTR
+ -t 2.120624317 -s 5 -d -1 -p tcp -e 1040 -c 2 -a 0 -i 50 -k AGT 
- -t 2.120624317 -s 5 -d -1 -p tcp -e 1040 -c 2 -a 0 -i 50 -k AGT
h -t 2.120624317 -s 5 -d -1 -p tcp -e 1040 -c 2 -a 0 -i 50 -k AGT
+ -t 2.120624317 -s 5 -d 2 -p tcp -e 1060 -c 2 -a 0 -i 50 -k RTR 
- -t 2.120624317 -s 5 -d 2 -p tcp -e 1060 -c 2 -a 0 -i 50 -k RTR
h -t 2.120624317 -s 5 -d 2 -p tcp -e 1060 -c 2 -a 0 -i 50 -k RTR
r -t 2.122628604 -s 5 -d 5 -p ack -e 60 -c 2 -a 0 -i 47 -k AGT
+ -t 2.122628604 -s 5 -d -1 -p tcp -e 1040 -c 2 -a 0 -i 51 -k AGT 
- -t 2.122628604 -s 5 -d -1 -p tcp -e 1040 -c 2 -a 0 -i 51 -k AGT
h -t 2.122628604 -s 5 -d -1 -p tcp -e 1040 -c 2 -a 0 -i 51 -k AGT
+ -t 2.122628604 -s 5 -d 1 -p tcp -e 1060 -c 2 -a 0 -i 51 -k RTR 
- -t 2.122628604 -s 5 -d 1 -p tcp -e 1060 -c 2 -a 0 -i 51 -k RTR
h -t 2.122628604 -s 5 -d 1 -p tcp -e 1060 -c 2 -a 0 -i 51 -k RTR
+ -t 2.122628604 -s 5 -d -1 -p tcp -e 1040 -c 2 -a 0 -i 52 -k AGT 
- -t 2.122628604 -s 5 -d -1 -p tcp -e 1040 -c 2 -a 0 -i 52 -k AGT
h -t 2.122628604 -s 5 -d -1 -p tcp -e 1040 -c 2 -a 0 -i 52 -k AGT
+ -t 2.122628604 -s 5 -d 1 -p tcp -e 1060 -c 2 -a 0 -i 52 -k RTR 
- -t 2.122628604 -s 5 -d 1 -p tcp -e 1060 -c 2 -a 0 -i 52 -k RTR
h -t 2.122628604 -s 5 -d 1 -p tcp -e 1060 -c 2 -a 0 -i 52 -k RTR
r -t 2.132632884 -s 7 -d 7 -p tcp -e 1060 -c 2 -a 0 -i 23 -k AGT
+ -t 2.132632884 -s 7 -d -1 -p ack -e 40 -c 2 -a 0 -i 53 -k AGT 
- -t 2.132632884 -s 7 -d -1 -p ack -e 40 -c 2 -a 0 -i 53 -k AGT
h -t 2.132632884 -s 7 -d -1 -p ack -e 40 -c 2 -a 0 -i 53 -k AGT
+ -t 2.132632884 -s 7 -d 8 -p ack -e 60 -c 2 -a 0 -i 53 -k RTR 
- -t 2.132632884 -s 7 -d 8 -p ack -e 60 -c 2 -a 0 -i 53 -k RTR
h -t 2.132632884 -s 7 -d 8 -p ack -e 60 -c 2 -a 0 -i 53 -k RTR
r -t 2.134637162 -s 8 -d 8 -p ack -e 60 -c 2 -a 0 -i 53 -k AGT
+ -t 2.134637162 -s 8 -d -1 -p tcp -e 1040 -c 2 -a 0 -i 54 -k AGT 
- -t 2.134637162 -s 8 -d -1 -p tcp -e 1040 -c 2 -a 0 -i 54 -k AGT
h -t 2.134637162 -s 8 -d -1 -p tcp -e 1040 -c 2 -a 0 -i 54 -k AGT
+ -t 2.134637162 -s 8 -d 7 -p tcp -e 1060 -c 2 -a 0 -i 54 -k RTR 
- -t 2.134637162 -s 8 -d 7 -p tcp -e 1060 -c 2 -a 0 -i 54 -k RTR
h -t 2.134637162 -s 8 -d 7 -p tcp -e 1060 -c 2 -a 0 -i 54 -k RTR
+ -t 2.134637162 -s 8 -d -1 -p tcp -e 1040 -c 2 -a 0 -i 55 -k AGT 
- -t 2.134637162 -s 8 -d -1 -p tcp -e 1040 -c 2 -a 0 -i 55 -k AGT
h -t 2.134637162 -s 8 -d -1 -p tcp -e 1040 -c 2 -a 0 -i 55 -k AGT
+ -t 2.134637162 -s 8 -d 7 -p tcp -e 1060 -c 2 -a 0 -i 55 -k RTR 
- -t 2.134637162 -s 8 -d 7 -p tcp -e 1060 -c 2 -a 0 -i 55 -k RTR
h -t 2.134637162 -s 8 -d 7 -p tcp -e 1060 -c 2 -a 0 -i 55 -k RTR
r -t 2.144641162 -s 9 -d 9 -p tcp -e 1060 -c 2 -a 0 -i 29 -k AGT
+ -t 2.144641162 -s 9 -d -1 -p ack -e 40 -c 2 -a 0 -i 56 -k AGT 
- -t 2.144641162 -s 9 -d -1 -p ack -e 40 -c 2 -a 0 -i 56 -k AGT
h -t 2.144641162 -s 9 -d -1 -p ack -e 40 -c 2 -a 0 -i 56 -k AGT
+ -t 2.144641162 -s 9 -d 8 -p ack -e 60 -c 2 -a 0 -i 56 -k RTR 
- -t 2.144641162 -s 9 -d 8 -p ack -e 60 -c 2 -a 0 -i 56 -k RTR
h -t 2.144641162 -s 9 -d 8 -p ack -e 60 -c 2 -a 0 -i 56 -k RTR
r -t 2.154645162 -s 9 -d 9 -p tcp -e 1060 -c 2 -a 0 -i 30 -k AGT
+ -t 2.154645162 -s 9 -d -1 -p ack -e 40 -c 2 -a 0 -i 57 -k AGT 
- -t 2.154645162 -s 9 -d -1 -p ack -e 40 -c 2 -a 0 -i 57 -k AGT
h -t 2.154645162 -s 9 -d -1 -p ack -e 40 -c 2 -a 0 -i 57 -k AGT
+ -t 2.154645162 -s 9 -d 8 -p ack -e 60 -c 2 -a 0 -i 57 -k RTR 
- -t 2.154645162 -s 9 -d 8 -p ack -e 60 -c 2 -a 0 -i 57 -k RTR
h -t 2.154645162 -s 9 -d 8 -p ack -e 60 -c 2 -a 0 -i 57 -k RTR
r -t 2.164649633 -s 3 -d 3 -p tcp -e 1060 -c 2 -a 0 -i 36 -k AGT
+ -t 2.164649633 -s 3 -d -1 -p ack -e 40 -c 2 -a 0 -i 58 -k AGT 
- -t 2.164649633 -s 3 -d -1 -p ack -e 40 -c 2 -a 0 -i 58 -k AGT
h -t 2.164649633 -s 3 -d -1 -p ack -e 40 -c 2 -a 0 -i 58 -k AGT
+ -t 2.164649633 -s 3 -d 8 -p ack -e 60 -c 2 -a 0 -i 58 -k RTR 
- -t 2.164649633 -s 3 -d 8 -p ack -e 60 -c 2 -a 0 -i 58 -k RTR
h -t 2.164649633 -s 3 -d 8 -p ack -e 60 -c 2 -a 0 -i 58 -k RTR
r -t 2.166853788 -s 8 -d 8 -p ack -e 60 -c 2 -a 0 -i 56 -k AGT
+ -t 2.166853788 -s 8 -d -1 -p tcp -e 1040 -c 2 -a 0 -i 59 -k AGT 
- -t 2.166853788 -s 8 -d -1 -p tcp -e 1040 -c 2 -a 0 -i 59 -k AGT
h -t 2.166853788 -s 8 -d -1 -p tcp -e 1040 -c 2 -a 0 -i 59 -k AGT
+ -t 2.166853788 -s 8 -d 9 -p tcp -e 1060 -c 2 -a 0 -i 59 -k RTR 
- -t 2.166853788 -s 8 -d 9 -p tcp -e 1060 -c 2 -a 0 -i 59 -k RTR
h -t 2.166853788 -s 8 -d 9 -p tcp -e 1060 -c 2 -a 0 -i 59 -k RTR
+ -t 2.166853788 -s 8 -d -1 -p tcp -e 1040 -c 2 -a 0 -i 60 -k AGT 