s 0.087337168 _5_ RTR  --- 0 message 32 [0 0 0 0] ------- [5:255 -1:255 32 0] 
r 0.088477201 _1_ RTR  --- 0 message 32 [0 ffffffff 5 800] ------- [5:255 -1:255 32 0] 
r 0.088477235 _4_ RTR  --- 0 message 32 [0 ffffffff 5 800] ------- [5:255 -1:255 32 0] 
r 0.088477235 _8_ RTR  --- 0 message 32 [0 ffffffff 5 800] ------- [5:255 -1:255 32 0] 
r 0.088477268 _2_ RTR  --- 0 message 32 [0 ffffffff 5 800] ------- [5:255 -1:255 32 0] 
r 0.088477268 _0_ RTR  --- 0 message 32 [0 ffffffff 5 800] ------- [5:255 -1:255 32 0] 
r 0.088477301 _9_ RTR  --- 0 message 32 [0 ffffffff 5 800] ------- [5:255 -1:255 32 0] 
s 0.230197377 _7_ RTR  --- 1 message 32 [0 0 0 0] ------- [7:255 -1:255 32 0] 
r 0.231257410 _6_ RTR  --- 1 message 32 [0 ffffffff 7 800] ------- [7:255 -1:255 32 0] 
r 0.231257510 _3_ RTR  --- 1 message 32 [0 ffffffff 7 800] ------- [7:255 -1:255 32 0] 
r 0.231258210 _8_ RTR  --- 1 message 32 [0 ffffffff 7 800] ------- [7:255 -1:255 32 0] 
s 0.335213882 _4_ RTR  --- 2 message 32 [0 0 0 0] ------- [4:255 -1:255 32 0] 
r 0.336433915 _2_ RTR  --- 2 message 32 [0 ffffffff 4 800] ------- [4:255 -1:255 32 0] 
r 0.336433915 _1_ RTR  --- 2 message 32 [0 ffffffff 4 800] ------- [4:255 -1:255 32 0] 
r 0.336433948 _5_ RTR  --- 2 message 32 [0 ffffffff 4 800] ------- [4:255 -1:255 32 0] 
r 0.336434015 _8_ RTR  --- 2 message 32 [0 ffffffff 4 800] ------- [4:255 -1:255 32 0] 
r 0.336434048 _0_ RTR  --- 2 message 32 [0 ffffffff 4 800] ------- [4:255 -1:255 32 0] 
r 0.336434082 _9_ RTR  --- 2 message 32 [0 ffffffff 4 800] ------- [4:255 -1:255 32 0] 
r 0.336434715 _3_ RTR  --- 2 message 32 [0 ffffffff 4 800] ------- [4:255 -1:255 32 0] 
s 0.471615760 _0_ RTR  --- 3 message 32 [0 0 0 0] ------- [0:255 -1:255 32 0] 
r 0.472735793 _8_ RTR  --- 3 message 32 [0 ffffffff 0 800] ------- [0:255 -1:255 32 0] 
r 0.472735793 _9_ RTR  --- 3 message 32 [0 ffffffff 0 800] ------- [0:255 -1:255 32 0] 
r 0.472735860 _5_ RTR  --- 3 message 32 [0 ffffffff 0 800] ------- [0:255 -1:255 32 0] 
r 0.472735893 _1_ RTR  --- 3 message 32 [0 ffffffff 0 800] ------- [0:255 -1:255 32 0] 
r 0.472735927 _4_ RTR  --- 3 message 32 [0 ffffffff 0 800] ------- [0:255 -1:255 32 0] 
r 0.472735960 _2_ RTR  --- 3 message 32 [0 ffffffff 0 800] ------- [0:255 -1:255 32 0] 
s 0.627207570 _2_ RTR  --- 4 message 32 [0 0 0 0] ------- [2:255 -1:255 32 0] 
r 0.628307604 _4_ RTR  --- 4 message 32 [0 ffffffff 2 800] ------- [2:255 -1:255 32 0] 
r 0.628307637 _1_ RTR  --- 4 message 32 [0 ffffffff 2 800] ------- [2:255 -1:255 32 0] 
r 0.628307670 _5_ RTR  --- 4 message 32 [0 ffffffff 2 800] ------- [2:255 -1:255 32 0] 
r 0.628307737 _8_ RTR  --- 4 message 32 [0 ffffffff 2 800] ------- [2:255 -1:255 32 0] 
r 0.628307770 _0_ RTR  --- 4 message 32 [0 ffffffff 2 800] ------- [2:255 -1:255 32 0] 
r 0.628307804 _9_ RTR  --- 4 message 32 [0 ffffffff 2 800] ------- [2:255 -1:255 32 0] 
s 0.849187125 _9_ RTR  --- 5 message 32 [0 0 0 0] ------- [9:255 -1:255 32 0] 
r 0.850227158 _0_ RTR  --- 5 message 32 [0 ffffffff 9 800] ------- [9:255 -1:255 32 0] 
r 0.850227192 _8_ RTR  --- 5 message 32 [0 ffffffff 9 800] ------- [9:255 -1:255 32 0] 
r 0.850227258 _5_ RTR  --- 5 message 32 [0 ffffffff 9 800] ------- [9:255 -1:255 32 0] 
r 0.850227292 _1_ RTR  --- 5 message 32 [0 ffffffff 9 800] ------- [9:255 -1:255 32 0] 
r 0.850227325 _4_ RTR  --- 5 message 32 [0 ffffffff 9 800] ------- [9:255 -1:255 32 0] 
r 0.850227358 _2_ RTR  --- 5 message 32 [0 ffffffff 9 800] ------- [9:255 -1:255 32 0] 
M 1.00000 0 (70.00, 500.00, 0.00), (490.00, 500.00), 60.00
M 1.00000 1 (30.00, 500.00, 0.00), (490.00, 500.00), 70.00
M 1.00000 2 (10.00, 500.00, 0.00), (490.00, 500.00), 70.00
M 1.00000 3 (20.00, 250.00, 0.00), (490.00, 250.00), 65.00
M 1.00000 4 (20.00, 500.00, 0.00), (490.00, 500.00), 75.00
M 1.00000 5 (40.00, 500.00, 0.00), (490.00, 500.00), 90.00
M 1.00000 6 (50.00, 250.00, 0.00), (490.00, 250.00), 120.00
M 1.00000 7 (60.00, 250.00, 0.00), (490.00, 250.00), 60.00
M 1.00000 8 (60.00, 500.00, 0.00), (490.00, 500.00), 95.00
M 1.00000 9 (80.00, 500.00, 0.00), (490.00, 500.00), 110.00
s 1.278850600 _1_ RTR  --- 6 message 32 [0 0 0 0] ------- [1:255 -1:255 32 0] 
r 1.279790628 _4_ RTR  --- 6 message 32 [0 ffffffff 1 800] ------- [1:255 -1:255 32 0] 
r 1.279790652 _5_ RTR  --- 6 message 32 [0 ffffffff 1 800] ------- [1:255 -1:255 32 0] 
r 1.279790666 _2_ RTR  --- 6 message 32 [0 ffffffff 1 800] ------- [1:255 -1:255 32 0] 
r 1.279790723 _8_ RTR  --- 6 message 32 [0 ffffffff 1 800] ------- [1:255 -1:255 32 0] 
r 1.279790724 _0_ RTR  --- 6 message 32 [0 ffffffff 1 800] ------- [1:255 -1:255 32 0] 
r 1.279790804 _9_ RTR  --- 6 message 32 [0 ffffffff 1 800] ------- [1:255 -1:255 32 0] 
s 1.283491946 _6_ RTR  --- 7 message 32 [0 0 0 0] ------- [6:255 -1:255 32 0] 
r 1.284491969 _7_ RTR  --- 7 message 32 [0 ffffffff 6 800] ------- [6:255 -1:255 32 0] 
r 1.284492098 _3_ RTR  --- 7 message 32 [0 ffffffff 6 800] ------- [6:255 -1:255 32 0] 
s 1.679633806 _3_ RTR  --- 8 message 32 [0 0 0 0] ------- [3:255 -1:255 32 0] 
r 1.680673928 _7_ RTR  --- 8 message 32 [0 ffffffff 3 800] ------- [3:255 -1:255 32 0] 
r 1.680674031 _6_ RTR  --- 8 message 32 [0 ffffffff 3 800] ------- [3:255 -1:255 32 0] 
s 1.725003792 _8_ RTR  --- 9 message 32 [0 0 0 0] ------- [8:255 -1:255 32 0] 
r 1.725903843 _0_ RTR  --- 9 message 32 [0 ffffffff 8 800] ------- [8:255 -1:255 32 0] 
r 1.725903870 _5_ RTR  --- 9 message 32 [0 ffffffff 8 800] ------- [8:255 -1:255 32 0] 
r 1.725903894 _9_ RTR  --- 9 message 32 [0 ffffffff 8 800] ------- [8:255 -1:255 32 0] 
r 1.725903952 _1_ RTR  --- 9 message 32 [0 ffffffff 8 800] ------- [8:255 -1:255 32 0] 
r 1.725903973 _4_ RTR  --- 9 message 32 [0 ffffffff 8 800] ------- [8:255 -1:255 32 0] 
r 1.725904019 _2_ RTR  --- 9 message 32 [0 ffffffff 8 800] ------- [8:255 -1:255 32 0] 
s 2.000000000 _5_ AGT  --- 10 tcp 40 [0 0 0 0] ------- [5:0 1:0 32 0] [0 0] 0 0
r 2.000000000 _5_ RTR  --- 10 tcp 40 [0 0 0 0] ------- [5:0 1:0 32 0] [0 0] 0 0
s 2.000000000 _5_ RTR  --- 10 tcp 60 [0 0 0 0] ------- [5:0 1:0 32 1] [0 0] 0 0
s 2.000000000 _5_ AGT  --- 11 tcp 40 [0 0 0 0] ------- [5:1 2:0 32 0] [0 0] 0 0
r 2.000000000 _5_ RTR  --- 11 tcp 40 [0 0 0 0] ------- [5:1 2:0 32 0] [0 0] 0 0
s 2.000000000 _5_ RTR  --- 11 tcp 60 [0 0 0 0] ------- [5:1 2:0 32 2] [0 0] 0 0
s 2.000000000 _5_ AGT  --- 12 tcp 40 [0 0 0 0] ------- [5:2 4:0 32 0] [0 0] 0 0
r 2.000000000 _5_ RTR  --- 12 tcp 40 [0 0 0 0] ------- [5:2 4:0 32 0] [0 0] 0 0
s 2.000000000 _5_ RTR  --- 12 tcp 60 [0 0 0 0] ------- [5:2 4:0 32 4] [0 0] 0 0
s 2.000000000 _5_ AGT  --- 13 tcp 40 [0 0 0 0] ------- [5:3 6:0 32 0] [0 0] 0 0
r 2.000000000 _5_ RTR  --- 13 tcp 40 [0 0 0 0] ------- [5:3 6:0 32 0] [0 0] 0 0
s 2.000000000 _8_ AGT  --- 14 tcp 40 [0 0 0 0] ------- [8:0 0:0 32 0] [0 0] 0 0
r 2.000000000 _8_ RTR  --- 14 tcp 40 [0 0 0 0] ------- [8:0 0:0 32 0] [0 0] 0 0
s 2.000000000 _8_ RTR  --- 14 tcp 60 [0 0 0 0] ------- [8:0 0:0 32 0] [0 0] 0 0
s 2.000000000 _8_ AGT  --- 15 tcp 40 [0 0 0 0] ------- [8:1 3:0 32 0] [0 0] 0 0
r 2.000000000 _8_ RTR  --- 15 tcp 40 [0 0 0 0] ------- [8:1 3:0 32 0] [0 0] 0 0
s 2.000000000 _8_ AGT  --- 16 tcp 40 [0 0 0 0] ------- [8:2 7:0 32 0] [0 0] 0 0
r 2.000000000 _8_ RTR  --- 16 tcp 40 [0 0 0 0] ------- [8:2 7:0 32 0] [0 0] 0 0
s 2.000000000 _8_ RTR  --- 16 tcp 60 [0 0 0 0] ------- [8:2 7:0 32 7] [0 0] 0 0
s 2.000000000 _8_ AGT  --- 17 tcp 40 [0 0 0 0] ------- [8:3 9:0 32 0] [0 0] 0 0
r 2.000000000 _8_ RTR  --- 17 tcp 40 [0 0 0 0] ------- [8:3 9:0 32 0] [0 0] 0 0
s 2.000000000 _8_ RTR  --- 17 tcp 60 [0 0 0 0] ------- [8:3 9:0 32 9] [0 0] 0 0
r 2.010590140 _0_ AGT  --- 14 tcp 60 [13a 0 8 800] ------- [8:0 0:0 32 0] [0 0] 1 0
s 2.010590140 _0_ AGT  --- 18 ack 40 [0 0 0 0] ------- [0:0 8:0 32 0] [0 0] 0 0
r 2.010590140 _0_ RTR  --- 18 ack 40 [0 0 0 0] ------- [0:0 8:0 32 0] [0 0] 0 0
s 2.010590140 _0_ RTR  --- 18 ack 60 [0 0 0 0] ------- [0:0 8:0 32 8] [0 0] 0 0
r 2.016171364 _4_ AGT  --- 12 tcp 60 [13a 4 5 800] ------- [5:2 4:0 32 4] [0 0] 1 0
s 2.016171364 _4_ AGT  --- 19 ack 40 [0 0 0 0] ------- [4:0 5:2 32 0] [0 0] 0 0
r 2.016171364 _4_ RTR  --- 19 ack 40 [0 0 0 0] ------- [4:0 5:2 32 0] [0 0] 0 0
s 2.016171364 _4_ RTR  --- 19 ack 60 [0 0 0 0] ------- [4:0 5:2 32 5] [0 0] 0 0
r 2.018215917 _9_ AGT  --- 17 tcp 60 [13a 9 8 800] ------- [8:3 9:0 32 9] [0 0] 1 0
s 2.018215917 _9_ AGT  --- 20 ack 40 [0 0 0 0] ------- [9:0 8:3 32 0] [0 0] 0 0
r 2.018215917 _9_ RTR  --- 20 ack 40 [0 0 0 0] ------- [9:0 8:3 32 0] [0 0] 0 0
s 2.018215917 _9_ RTR  --- 20 ack 60 [0 0 0 0] ------- [9:0 8:3 32 8] [0 0] 0 0
r 2.021226589 _5_ AGT  --- 19 ack 60 [13a 5 4 800] ------- [4:0 5:2 32 5] [0 0] 1 0
s 2.021226589 _5_ AGT  --- 21 tcp 1040 [0 0 0 0] ------- [5:2 4:0 32 0] [1 0] 0 0
r 2.021226589 _5_ RTR  --- 21 tcp 1040 [0 0 0 0] ------- [5:2 4:0 32 0] [1 0] 0 0
s 2.021226589 _5_ RTR  --- 21 tcp 1060 [0 0 0 0] ------- [5:2 4:0 32 4] [1 0] 0 0
s 2.021226589 _5_ AGT  --- 22 tcp 1040 [0 0 0 0] ------- [5:2 4:0 32 0] [2 0] 0 0
r 2.021226589 _5_ RTR  --- 22 tcp 1040 [0 0 0 0] ------- [5:2 4:0 32 0] [2 0] 0 0
s 2.021226589 _5_ RTR  --- 22 tcp 1060 [0 0 0 0] ------- [5:2 4:0 32 4] [2 0] 0 0
r 2.023670849 _8_ AGT  --- 18 ack 60 [13a 8 0 800] ------- [0:0 8:0 32 8] [0 0] 1 0
s 2.023670849 _8_ AGT  --- 23 tcp 1040 [0 0 0 0] ------- [8:0 0:0 32 0] [1 0] 0 0
r 2.023670849 _8_ RTR  --- 23 tcp 1040 [0 0 0 0] ------- [8:0 0:0 32 0] [1 0] 0 0
s 2.023670849 _8_ RTR  --- 23 tcp 1060 [0 0 0 0] ------- [8:0 0:0 32 0] [1 0] 0 0
s 2.023670849 _8_ AGT  --- 24 tcp 1040 [0 0 0 0] ------- [8:0 0:0 32 0] [2 0] 0 0
r 2.023670849 _8_ RTR  --- 24 tcp 1040 [0 0 0 0] ------- [8:0 0:0 32 0] [2 0] 0 0
s 2.023670849 _8_ RTR  --- 24 tcp 1060 [0 0 0 0] ------- [8:0 0:0 32 0] [2 0] 0 0
r 2.033955108 _0_ AGT  --- 23 tcp 1060 [13a 0 8 800] ------- [8:0 0:0 32 0] [1 0] 1 0
s 2.033955108 _0_ AGT  --- 25 ack 40 [0 0 0 0] ------- [0:0 8:0 32 0] [1 0] 0 0
r 2.033955108 _0_ RTR  --- 25 ack 40 [0 0 0 0] ------- [0:0 8:0 32 0] [1 0] 0 0
s 2.033955108 _0_ RTR  --- 25 ack 60 [0 0 0 0] ------- [0:0 8:0 32 8] [1 0] 0 0
r 2.035979669 _8_ AGT  --- 20 ack 60 [13a 8 9 800] ------- [9:0 8:3 32 8] [0 0] 1 0
s 2.035979669 _8_ AGT  --- 26 tcp 1040 [0 0 0 0] ------- [8:3 9:0 32 0] [1 0] 0 0
r 2.035979669 _8_ RTR  --- 26 tcp 1040 [0 0 0 0] ------- [8:3 9:0 32 0] [1 0] 0 0
s 2.035979669 _8_ RTR  --- 26 tcp 1060 [0 0 0 0] ------- [8:3 9:0 32 9] [1 0] 0 0
s 2.035979669 _8_ AGT  --- 27 tcp 1040 [0 0 0 0] ------- [8:3 9:0 32 0] [2 0] 0 0
r 2.035979669 _8_ RTR  --- 27 tcp 1040 [0 0 0 0] ------- [8:3 9:0 32 0] [2 0] 0 0
s 2.035979669 _8_ RTR  --- 27 tcp 1060 [0 0 0 0] ------- [8:3 9:0 32 9] [2 0] 0 0
r 2.038184060 _1_ AGT  --- 10 tcp 60 [13a 1 5 800] ------- [5:0 1:0 32 1] [0 0] 1 0
s 2.038184060 _1_ AGT  --- 28 ack 40 [0 0 0 0] ------- [1:0 5:0 32 0] [0 0] 0 0
r 2.038184060 _1_ RTR  --- 28 ack 40 [0 0 0 0] ------- [1:0 5:0 32 0] [0 0] 0 0
s 2.038184060 _1_ RTR  --- 28 ack 60 [0 0 0 0] ------- [1:0 5:0 32 5] [0 0] 0 0
r 2.040208422 _8_ AGT  --- 25 ack 60 [13a 8 0 800] ------- [0:0 8:0 32 8] [1 0] 1 0
s 2.040208422 _8_ AGT  --- 29 tcp 1040 [0 0 0 0] ------- [8:0 0:0 32 0] [3 0] 0 0
r 2.040208422 _8_ RTR  --- 29 tcp 1040 [0 0 0 0] ------- [8:0 0:0 32 0] [3 0] 0 0
s 2.040208422 _8_ RTR  --- 29 tcp 1060 [0 0 0 0] ------- [8:0 0:0 32 0] [3 0] 0 0
s 2.040208422 _8_ AGT  --- 30 tcp 1040 [0 0 0 0] ------- [8:0 0:0 32 0] [4 0] 0 0
r 2.040208422 _8_ RTR  --- 30 tcp 1040 [0 0 0 0] ------- [8:0 0:0 32 0] [4 0] 0 0
s 2.040208422 _8_ RTR  --- 30 tcp 1060 [0 0 0 0] ------- [8:0 0:0 32 0] [4 0] 0 0
r 2.050232687 _0_ AGT  --- 24 tcp 1060 [13a 0 8 800] ------- [8:0 0:0 32 0] [2 0] 1 0
s 2.050232687 _0_ AGT  --- 31 ack 40 [0 0 0 0] ------- [0:0 8:0 32 0] [2 0] 0 0
r 2.050232687 _0_ RTR  --- 31 ack 40 [0 0 0 0] ------- [0:0 8:0 32 0] [2 0] 0 0
s 2.050232687 _0_ RTR  --- 31 ack 60 [0 0 0 0] ------- [0:0 8:0 32 8] [2 0] 0 0
r 2.061143134 _9_ AGT  --- 26 tcp 1060 [13a 9 8 800] ------- [8:3 9:0 32 9] [1 0] 1 0
s 2.061143134 _9_ AGT  --- 32 ack 40 [0 0 0 0] ------- [9:0 8:3 32 0] [1 0] 0 0
r 2.061143134 _9_ RTR  --- 32 ack 40 [0 0 0 0] ------- [9:0 8:3 32 0] [1 0] 0 0
s 2.061143134 _9_ RTR  --- 32 ack 60 [0 0 0 0] ------- [9:0 8:3 32 8] [1 0] 0 0
r 2.063247493 _8_ AGT  --- 32 ack 60 [13a 8 9 800] ------- [9:0 8:3 32 8] [1 0] 1 0
s 2.063247493 _8_ AGT  --- 33 tcp 1040 [0 0 0 0] ------- [8:3 9:0 32 0] [3 0] 0 0
r 2.063247493 _8_ RTR  --- 33 tcp 1040 [0 0 0 0] ------- [8:3 9:0 32 0] [3 0] 0 0
s 2.063247493 _8_ RTR  --- 33 tcp 1060 [0 0 0 0] ------- [8:3 9:0 32 9] [3 0] 0 0
s 2.063247493 _8_ AGT  --- 34 tcp 1040 [0 0 0 0] ------- [8:3 9:0 32 0] [4 0] 0 0
r 2.063247493 _8_ RTR  --- 34 tcp 1040 [0 0 0 0] ------- [8:3 9:0 32 0] [4 0] 0 0
s 2.063247493 _8_ RTR  --- 34 tcp 1060 [0 0 0 0] ------- [8:3 9:0 32 9] [4 0] 0 0
r 2.073271852 _9_ AGT  --- 27 tcp 1060 [13a 9 8 800] ------- [8:3 9:0 32 9] [2 0] 1 0
s 2.073271852 _9_ AGT  --- 35 ack 40 [0 0 0 0] ------- [9:0 8:3 32 0] [2 0] 0 0
r 2.073271852 _9_ RTR  --- 35 ack 40 [0 0 0 0] ------- [9:0 8:3 32 0] [2 0] 0 0
s 2.073271852 _9_ RTR  --- 35 ack 60 [0 0 0 0] ------- [9:0 8:3 32 8] [2 0] 0 0
r 2.083256249 _0_ AGT  --- 29 tcp 1060 [13a 0 8 800] ------- [8:0 0:0 32 0] [3 0] 1 0
s 2.083256249 _0_ AGT  --- 36 ack 40 [0 0 0 0] ------- [0:0 8:0 32 0] [3 0] 0 0
r 2.083256249 _0_ RTR  --- 36 ack 40 [0 0 0 0] ------- [0:0 8:0 32 0] [3 0] 0 0
s 2.083256249 _0_ RTR  --- 36 ack 60 [0 0 0 0] ------- [0:0 8:0 32 8] [3 0] 0 0
r 2.093380621 _0_ AGT  --- 30 tcp 1060 [13a 0 8 800] ------- [8:0 0:0 32 0] [4 0] 1 0
s 2.093380621 _0_ AGT  --- 37 ack 40 [0 0 0 0] ------- [0:0 8:0 32 0] [4 0] 0 0
r 2.093380621 _0_ RTR  --- 37 ack 40 [0 0 0 0] ------- [0:0 8:0 32 0] [4 0] 0 0
s 2.093380621 _0_ RTR  --- 37 ack 60 [0 0 0 0] ------- [0:0 8:0 32 8] [4 0] 0 0
r 2.095405201 _8_ AGT  --- 35 ack 60 [13a 8 9 800] ------- [9:0 8:3 32 8] [2 0] 1 0
s 2.095405201 _8_ AGT  --- 38 tcp 1040 [0 0 0 0] ------- [8:3 9:0 32 0] [5 0] 0 0
r 2.095405201 _8_ RTR  --- 38 tcp 1040 [0 0 0 0] ------- [8:3 9:0 32 0] [5 0] 0 0
s 2.095405201 _8_ RTR  --- 38 tcp 1060 [0 0 0 0] ------- [8:3 9:0 32 9] [5 0] 0 0
s 2.095405201 _8_ AGT  --- 39 tcp 1040 [0 0 0 0] ------- [8:3 9:0 32 0] [6 0] 0 0
r 2.095405201 _8_ RTR  --- 39 tcp 1040 [0 0 0 0] ------- [8:3 9:0 32 0] [6 0] 0 0
s 2.095405201 _8_ RTR  --- 39 tcp 1060 [0 0 0 0] ------- [8:3 9:0 32 9] [6 0] 0 0
r 2.097409711 _5_ AGT  --- 28 ack 60 [13a 5 1 800] ------- [1:0 5:0 32 5] [0 0] 1 0
s 2.097409711 _5_ AGT  --- 40 tcp 1040 [0 0 0 0] ------- [5:0 1:0 32 0] [1 0] 0 0
r 2.097409711 _5_ RTR  --- 40 tcp 1040 [0 0 0 0] ------- [5:0 1:0 32 0] [1 0] 0 0
s 2.097409711 _5_ RTR  --- 40 tcp 1060 [0 0 0 0] ------- [5:0 1:0 32 1] [1 0] 0 0
s 2.097409711 _5_ AGT  --- 41 tcp 1040 [0 0 0 0] ------- [5:0 1:0 32 0] [2 0] 0 0
r 2.097409711 _5_ RTR  --- 41 tcp 1040 [0 0 0 0] ------- [5:0 1:0 32 0] [2 0] 0 0
s 2.097409711 _5_ RTR  --- 41 tcp 1060 [0 0 0 0] ------- [5:0 1:0 32 1] [2 0] 0 0
r 2.107494076 _4_ AGT  --- 21 tcp 1060 [13a 4 5 800] ------- [5:2 4:0 32 4] [1 0] 1 0
s 2.107494076 _4_ AGT  --- 42 ack 40 [0 0 0 0] ------- [4:0 5:2 32 0] [1 0] 0 0
r 2.107494076 _4_ RTR  --- 42 ack 40 [0 0 0 0] ------- [4:0 5:2 32 0] [1 0] 0 0
s 2.107494076 _4_ RTR  --- 42 ack 60 [0 0 0 0] ------- [4:0 5:2 32 5] [1 0] 0 0
r 2.117678649 _9_ AGT  --- 33 tcp 1060 [13a 9 8 800] ------- [8:3 9:0 32 9] [3 0] 1 0
s 2.117678649 _9_ AGT  --- 43 ack 40 [0 0 0 0] ------- [9:0 8:3 32 0] [3 0] 0 0
r 2.117678649 _9_ RTR  --- 43 ack 40 [0 0 0 0] ------- [9:0 8:3 32 0] [3 0] 0 0
s 2.117678649 _9_ RTR  --- 43 ack 60 [0 0 0 0] ------- [9:0 8:3 32 8] [3 0] 0 0
r 2.127683140 _9_ AGT  --- 34 tcp 1060 [13a 9 8 800] ------- [8:3 9:0 32 9] [4 0] 1 0
s 2.127683140 _9_ AGT  --- 44 ack 40 [0 0 0 0] ------- [9:0 8:3 32 0] [4 0] 0 0
r 2.127683140 _9_ RTR  --- 44 ack 40 [0 0 0 0] ------- [9:0 8:3 32 0] [4 0] 0 0
s 2.127683140 _9_ RTR  --- 44 ack 60 [0 0 0 0] ------- [9:0 8:3 32 8] [4 0] 0 0
r 2.137767718 _4_ AGT  --- 22 tcp 1060 [13a 4 5 800] ------- [5:2 4:0 32 4] [2 0] 1 0
s 2.137767718 _4_ AGT  --- 45 ack 40 [0 0 0 0] ------- [4:0 5:2 32 0] [2 0] 0 0
r 2.137767718 _4_ RTR  --- 45 ack 40 [0 0 0 0] ------- [4:0 5:2 32 0] [2 0] 0 0
s 2.137767718 _4_ RTR  --- 45 ack 60 [0 0 0 0] ------- [4:0 5:2 32 5] [2 0] 0 0
r 2.139792421 _8_ AGT  --- 43 ack 60 [13a 8 9 800] ------- [9:0 8:3 32 8] [3 0] 1 0
s 2.139792421 _8_ AGT  --- 46 tcp 1040 [0 0 0 0] ------- [8:3 9:0 32 0] [7 0] 0 0
r 2.139792421 _8_ RTR  --- 46 tcp 1040 [0 0 0 0] ------- [8:3 9:0 32 0] [7 0] 0 0
s 2.139792421 _8_ RTR  --- 46 tcp 1060 [0 0 0 0] ------- [8:3 9:0 32 9] [7 0] 0 0
s 2.139792421 _8_ AGT  --- 47 tcp 1040 [0 0 0 0] ------- [8:3 9:0 32 0] [8 0] 0 0
r 2.139792421 _8_ RTR  --- 47 tcp 1040 [0 0 0 0] ------- [8:3 9:0 32 0] [8 0] 0 0
s 2.139792421 _8_ RTR  --- 47 tcp 1060 [0 0 0 0] ------- [8:3 9:0 32 9] [8 0] 0 0
r 2.141776916 _8_ AGT  --- 44 ack 60 [13a 8 9 800] ------- [9:0 8:3 32 8] [4 0] 1 0
s 2.141776916 _8_ AGT  --- 48 tcp 1040 [0 0 0 0] ------- [8:3 9:0 32 0] [9 0] 0 0
r 2.141776916 _8_ RTR  --- 48 tcp 1040 [0 0 0 0] ------- [8:3 9:0 32 0] [9 0] 0 0
s 2.141776916 _8_ RTR  --- 48 tcp 1060 [0 0 0 0] ------- [8:3 9:0 32 9] [9 0] 0 0
s 2.141776916 _8_ AGT  --- 49 tcp 1040 [0 0 0 0] ------- [8:3 9:0 32 0] [10 0] 0 0
r 2.141776916 _8_ RTR  --- 49 tcp 1040 [0 0 0 0] ------- [8:3 9:0 32 0] [10 0] 0 0
s 2.141776916 _8_ RTR  --- 49 tcp 1060 [0 0 0 0] ------- [8:3 9:0 32 9] [10 0] 0 0
r 2.151821330 _1_ AGT  --- 40 tcp 1060 [13a 1 5 800] ------- [5:0 1:0 32 1] [1 0] 1 0
s 2.151821330 _1_ AGT  --- 50 ack 40 [0 0 0 0] ------- [1:0 5:0 32 0] [1 0] 0 0
r 2.151821330 _1_ RTR  --- 50 ack 40 [0 0 0 0] ------- [1:0 5:0 32 0] [1 0] 0 0
s 2.151821330 _1_ RTR  --- 50 ack 60 [0 0 0 0] ------- [1:0 5:0 32 5] [1 0] 0 0
r 2.161865899 _9_ AGT  --- 38 tcp 1060 [13a 9 8 800] ------- [8:3 9:0 32 9] [5 0] 1 0
s 2.161865899 _9_ AGT  --- 51 ack 40 [0 0 0 0] ------- [9:0 8:3 32 0] [5 0] 0 0
r 2.161865899 _9_ RTR  --- 51 ack 40 [0 0 0 0] ------- [9:0 8:3 32 0] [5 0] 0 0
s 2.161865899 _9_ RTR  --- 51 ack 60 [0 0 0 0] ------- [9:0 8:3 32 8] [5 0] 0 0
r 2.164776650 _8_ AGT  --- 31 ack 60 [13a 8 0 800] ------- [0:0 8:0 32 8] [2 0] 1 0
s 2.164776650 _8_ AGT  --- 52 tcp 1040 [0 0 0 0] ------- [8:0 0:0 32 0] [5 0] 0 0
r 2.164776650 _8_ RTR  --- 52 tcp 1040 [0 0 0 0] ------- [8:0 0:0 32 0] [5 0] 0 0
s 2.164776650 _8_ RTR  --- 52 tcp 1060 [0 0 0 0] ------- [8:0 0:0 32 0] [5 0] 0 0
s 2.164776650 _8_ AGT  --- 53 tcp 1040 [0 0 0 0] ------- [8:0 0:0 32 0] [6 0] 0 0
r 2.164776650 _8_ RTR  --- 53 tcp 1040 [0 0 0 0] ------- [8:0 0:0 32 0] [6 0] 0 0
s 2.164776650 _8_ RTR  --- 53 tcp 1060 [0 0 0 0] ------- [8:0 0:0 32 0] [6 0] 0 0
r 2.166861236 _5_ AGT  --- 42 ack 60 [13a 5 4 800] ------- [4:0 5:2 32 5] [1 0] 1 0
s 2.166861236 _5_ AGT  --- 54 tcp 1040 [0 0 0 0] ------- [5:2 4:0 32 0] [3 0] 0 0
r 2.166861236 _5_ RTR  --- 54 tcp 1040 [0 0 0 0] ------- [5:2 4:0 32 0] [3 0] 0 0
s 2.166861236 _5_ RTR  --- 54 tcp 1060 [0 0 0 0] ------- [5:2 4:0 32 4] [3 0] 0 0
s 2.166861236 _5_ AGT  --- 55 tcp 1040 [0 0 0 0] ------- [5:2 4:0 32 0] [4 0] 0 0
r 2.166861236 _5_ RTR  --- 55 tcp 1040 [0 0 0 0] ------- [5:2 4:0 32 0] [4 0] 0 0
s 2.166861236 _5_ RTR  --- 55 tcp 1060 [0 0 0 0] ------- [5:2 4:0 32 4] [4 0] 0 0
r 2.168865736 _5_ AGT  --- 45 ack 60 [13a 5 4 800] ------- [4:0 5:2 32 5] [2 0] 1 0
s 2.168865736 _5_ AGT  --- 56 tcp 1040 [0 0 0 0] ------- [5:2 4:0 32 0] [5 0] 0 0
r 2.168865736 _5_ RTR  --- 56 tcp 1040 [0 0 0 0] ------- [5:2 4:0 32 0] [5 0] 0 0
s 2.168865736 _5_ RTR  --- 56 tcp 1060 [0 0 0 0] ------- [5:2 4:0 32 4] [5 0] 0 0
s 2.168865736 _5_ AGT  --- 57 tcp 1040 [0 0 0 0] ------- [5:2 4:0 32 0] [6 0] 0 0
r 2.168865736 _5_ RTR  --- 57 tcp 1040 [0 0 0 0] ------- [5:2 4:0 32 0] [6 0] 0 0
s 2.168865736 _5_ RTR  --- 57 tcp 1060 [0 0 0 0] ------- [5:2 4:0 32 4] [6 0] 0 0
r 2.179916448 _9_ AGT  --- 39 tcp 1060 [13a 9 8 800] ------- [8:3 9:0 32 9] [6 0] 1 0
s 2.179916448 _9_ AGT  --- 58 ack 40 [0 0 0 0] ------- [9:0 8:3 32 0] [6 0] 0 0
r 2.179916448 _9_ RTR  --- 58 ack 40 [0 0 0 0] ------- [9:0 8:3 32 0] [6 0] 0 0
s 2.179916448 _9_ RTR  --- 58 ack 60 [0 0 0 0] ------- [9:0 8:3 32 8] [6 0] 0 0
r 2.181961108 _5_ AGT  --- 50 ack 60 [13a 5 1 800] ------- [1:0 5:0 32 5] [1 0] 1 0
s 2.181961108 _5_ AGT  --- 59 tcp 1040 [0 0 0 0] ------- [5:0 1:0 32 0] [3 0] 0 0
r 2.181961108 _5_ RTR  --- 59 tcp 1040 [0 0 0 0] ------- [5:0 1:0 32 0] [3 0] 0 0
s 2.181961108 _5_ RTR  --- 59 tcp 1060 [0 0 0 0] ------- [5:0 1:0 32 1] [3 0] 0 0
s 2.181961108 _5_ AGT  --- 60 tcp 1040 [0 0 0 0] ------- [5:0 1:0 32 0] [4 0] 0 0
r 2.181961108 _5_ RTR  --- 60 tcp 1040 [0 0 0 0] ------- [5:0 1:0 32 0] [4 0] 0 0
s 2.181961108 _5_ RTR  --- 60 tcp 1060 [0 0 0 0] ------- [5:0 1:0 32 1] [4 0] 0 0
r 2.192005445 _1_ AGT  --- 41 tcp 1060 [13a 1 5 800] ------- [5:0 1:0 32 1] [2 0] 1 0
s 2.192005445 _1_ AGT  --- 61 ack 40 [0 0 0 0] ------- [1:0 5:0 32 0] [2 0] 0 0
r 2.192005445 _1_ RTR  --- 61 ack 40 [0 0 0 0] ------- [1:0 5:0 32 0] [2 0] 0 0
s 2.192005445 _1_ RTR  --- 61 ack 60 [0 0 0 0] ------- [1:0 5:0 32 5] [2 0] 0 0
r 2.202250023 _9_ AGT  --- 46 tcp 1060 [13a 9 8 800] ------- [8:3 9:0 32 9] [7 0] 1 0
s 2.202250023 _9_ AGT  --- 62 ack 40 [0 0 0 0] ------- [9:0 8:3 32 0] [7 0] 0 0
r 2.202250023 _9_ RTR  --- 62 ack 40 [0 0 0 0] ------- [9:0 8:3 32 0] [7 0] 0 0
s 2.202250023 _9_ RTR  --- 62 ack 60 [0 0 0 0] ------- [9:0 8:3 32 8] [7 0] 0 0
r 2.212294617 _4_ AGT  --- 54 tcp 1060 [13a 4 5 800] ------- [5:2 4:0 32 4] [3 0] 1 0
s 2.212294617 _4_ AGT  --- 63 ack 40 [0 0 0 0] ------- [4:0 5:2 32 0] [3 0] 0 0
r 2.212294617 _4_ RTR  --- 63 ack 40 [0 0 0 0] ------- [4:0 5:2 32 0] [3 0] 0 0
s 2.212294617 _4_ RTR  --- 63 ack 60 [0 0 0 0] ------- [4:0 5:2 32 5] [3 0] 0 0
r 2.214378973 _5_ AGT  --- 61 ack 60 [13a 5 1 800] ------- [1:0 5:0 32 5] [2 0] 1 0
s 2.214378973 _5_ AGT  --- 64 tcp 1040 [0 0 0 0] ------- [5:0 1:0 32 0] [5 0] 0 0
r 2.214378973 _5_ RTR  --- 64 tcp 1040 [0 0 0 0] ------- [5:0 1:0 32 0] [5 0] 0 0
s 2.214378973 _5_ RTR  --- 64 tcp 1060 [0 0 0 0] ------- [5:0 1:0 32 1] [5 0] 0 0
s 2.214378973 _5_ AGT  --- 65 tcp 1040 [0 0 0 0] ------- [5:0 1:0 32 0] [6 0] 0 0
r 2.214378973 _5_ RTR  --- 65 tcp 1040 [0 0 0 0] ------- [5:0 1:0 32 0] [6 0] 0 0
s 2.214378973 _5_ RTR  --- 65 tcp 1060 [0 0 0 0] ------- [5:0 1:0 32 1] [6 0] 0 0
r 2.224383442 _9_ AGT  --- 47 tcp 1060 [13a 9 8 800] ------- [8:3 9:0 32 9] [8 0] 1 0
s 2.224383442 _9_ AGT  --- 66 ack 40 [0 0 0 0] ------- [9:0 8:3 32 0] [8 0] 0 0
r 2.224383442 _9_ RTR  --- 66 ack 40 [0 0 0 0] ------- [9:0 8:3 32 0] [8 0] 0 0
s 2.224383442 _9_ RTR  --- 66 ack 60 [0 0 0 0] ------- [9:0 8:3 32 8] [8 0] 0 0
r 2.234428041 _4_ AGT  --- 55 tcp 1060 [13a 4 5 800] ------- [5:2 4:0 32 4] [4 0] 1 0
s 2.234428041 _4_ AGT  --- 67 ack 40 [0 0 0 0] ------- [4:0 5:2 32 0] [4 0] 0 0
r 2.234428041 _4_ RTR  --- 67 ack 40 [0 0 0 0] ------- [4:0 5:2 32 0] [4 0] 0 0
s 2.234428041 _4_ RTR  --- 67 ack 60 [0 0 0 0] ------- [4:0 5:2 32 5] [4 0] 0 0
r 2.244412554 _4_ AGT  --- 56 tcp 1060 [13a 4 5 800] ------- [5:2 4:0 32 4] [5 0] 1 0
s 2.244412554 _4_ AGT  --- 68 ack 40 [0 0 0 0] ------- [4:0 5:2 32 0] [5 0] 0 0
r 2.244412554 _4_ RTR  --- 68 ack 40 [0 0 0 0] ------- [4:0 5:2 32 0] [5 0] 0 0
s 2.244412554 _4_ RTR  --- 68 ack 60 [0 0 0 0] ------- [4:0 5:2 32 5] [5 0] 0 0
r 2.246416995 _8_ AGT  --- 36 ack 60 [13a 8 0 800] ------- [0:0 8:0 32 8] [3 0] 1 0
s 2.246416995 _8_ AGT  --- 69 tcp 1040 [0 0 0 0] ------- [8:0 0:0 32 0] [7 0] 0 0
r 2.246416995 _8_ RTR  --- 69 tcp 1040 [0 0 0 0] ------- [8:0 0:0 32 0] [7 0] 0 0
s 2.246416995 _8_ RTR  --- 69 tcp 1060 [0 0 0 0] ------- [8:0 0:0 32 0] [7 0] 0 0
s 2.246416995 _8_ AGT  --- 70 tcp 1040 [0 0 0 0] ------- [8:0 0:0 32 0] [8 0] 0 0
r 2.246416995 _8_ RTR  --- 70 tcp 1040 [0 0 0 0] ------- [8:0 0:0 32 0] [8 0] 0 0
s 2.246416995 _8_ RTR  --- 70 tcp 1060 [0 0 0 0] ------- [8:0 0:0 32 0] [8 0] 0 0
r 2.248401443 _8_ AGT  --- 37 ack 60 [13a 8 0 800] ------- [0:0 8:0 32 8] [4 0] 1 0
s 2.248401443 _8_ AGT  --- 71 tcp 1040 [0 0 0 0] ------- [8:0 0:0 32 0] [9 0] 0 0
r 2.248401443 _8_ RTR  --- 71 tcp 1040 [0 0 0 0] ------- [8:0 0:0 32 0] [9 0] 0 0
s 2.248401443 _8_ RTR  --- 71 tcp 1060 [0 0 0 0] ------- [8:0 0:0 32 0] [9 0] 0 0
s 2.248401443 _8_ AGT  --- 72 tcp 1040 [0 0 0 0] ------- [8:0 0:0 32 0] [10 0] 0 0
r 2.248401443 _8_ RTR  --- 72 tcp 1040 [0 0 0 0] ------- [8:0 0:0 32 0] [10 0] 0 0
s 2.248401443 _8_ RTR  --- 72 tcp 1060 [0 0 0 0] ------- [8:0 0:0 32 0] [10 0] 0 0
r 2.258465918 _4_ AGT  --- 57 tcp 1060 [13a 4 5 800] ------- [5:2 4:0 32 4] [6 0] 1 0
s 2.258465918 _4_ AGT  --- 73 ack 40 [0 0 0 0] ------- [4:0 5:2 32 0] [6 0] 0 0
r 2.258465918 _4_ RTR  --- 73 ack 40 [0 0 0 0] ------- [4:0 5:2 32 0] [6 0] 0 0
s 2.258465918 _4_ RTR  --- 73 ack 60 [0 0 0 0] ------- [4:0 5:2 32 5] [6 0] 0 0
r 2.268530524 _9_ AGT  --- 48 tcp 1060 [13a 9 8 800] ------- [8:3 9:0 32 9] [9 0] 1 0
s 2.268530524 _9_ AGT  --- 74 ack 40 [0 0 0 0] ------- [9:0 8:3 32 0] [9 0] 0 0
r 2.268530524 _9_ RTR  --- 74 ack 40 [0 0 0 0] ------- [9:0 8:3 32 0] [9 0] 0 0
s 2.268530524 _9_ RTR  --- 74 ack 60 [0 0 0 0] ------- [9:0 8:3 32 8] [9 0] 0 0
r 2.270695262 _5_ AGT  --- 63 ack 60 [13a 5 4 800] ------- [4:0 5:2 32 5] [3 0] 1 0
s 2.270695262 _5_ AGT  --- 75 tcp 1040 [0 0 0 0] ------- [5:2 4:0 32 0] [7 0] 0 0
r 2.270695262 _5_ RTR  --- 75 tcp 1040 [0 0 0 0] ------- [5:2 4:0 32 0] [7 0] 0 0
s 2.270695262 _5_ RTR  --- 75 tcp 1060 [0 0 0 0] ------- [5:2 4:0 32 4] [7 0] 0 0
s 2.270695262 _5_ AGT  --- 76 tcp 1040 [0 0 0 0] ------- [5:2 4:0 32 0] [8 0] 0 0
r 2.270695262 _5_ RTR  --- 76 tcp 1040 [0 0 0 0] ------- [5:2 4:0 32 0] [8 0] 0 0
s 2.270695262 _5_ RTR  --- 76 tcp 1060 [0 0 0 0] ------- [5:2 4:0 32 4] [8 0] 0 0
r 2.272699871 _8_ AGT  --- 51 ack 60 [13a 8 9 800] ------- [9:0 8:3 32 8] [5 0] 1 0
s 2.272699871 _8_ AGT  --- 77 tcp 1040 [0 0 0 0] ------- [8:3 9:0 32 0] [11 0] 0 0
r 2.272699871 _8_ RTR  --- 77 tcp 1040 [0 0 0 0] ------- [8:3 9:0 32 0] [11 0] 0 0
s 2.272699871 _8_ RTR  --- 77 tcp 1060 [0 0 0 0] ------- [8:3 9:0 32 9] [11 0] 0 0
s 2.272699871 _8_ AGT  --- 78 tcp 1040 [0 0 0 0] ------- [8:3 9:0 32 0] [12 0] 0 0
r 2.272699871 _8_ RTR  --- 78 tcp 1040 [0 0 0 0] ------- [8:3 9:0 32 0] [12 0] 0 0
s 2.272699871 _8_ RTR  --- 78 tcp 1060 [0 0 0 0] ------- [8:3 9:0 32 9] [12 0] 0 0
r 2.274904393 _8_ AGT  --- 58 ack 60 [13a 8 9 800] ------- [9:0 8:3 32 8] [6 0] 1 0
s 2.274904393 _8_ AGT  --- 79 tcp 1040 [0 0 0 0] ------- [8:3 9:0 32 0] [13 0] 0 0
r 2.274904393 _8_ RTR  --- 79 tcp 1040 [0 0 0 0] ------- [8:3 9:0 32 0] [13 0] 0 0
s 2.274904393 _8_ RTR  --- 79 tcp 1060 [0 0 0 0] ------- [8:3 9:0 32 9] [13 0] 0 0
s 2.274904393 _8_ AGT  --- 80 tcp 1040 [0 0 0 0] ------- [8:3 9:0 32 0] [14 0] 0 0
r 2.274904393 _8_ RTR  --- 80 tcp 1040 [0 0 0 0] ------- [8:3 9:0 32 0] [14 0] 0 0
s 2.274904393 _8_ RTR  --- 80 tcp 1060 [0 0 0 0] ------- [8:3 9:0 32 9] [14 0] 0 0
r 2.284948836 _1_ AGT  --- 59 tcp 1060 [13a 1 5 800] ------- [5:0 1:0 32 1] [3 0] 1 0
s 2.284948836 _1_ AGT  --- 81 ack 40 [0 0 0 0] ------- [1:0 5:0 32 0] [3 0] 0 0
r 2.284948836 _1_ RTR  --- 81 ack 40 [0 0 0 0] ------- [1:0 5:0 32 0] [3 0] 0 0
s 2.284948836 _1_ RTR  --- 81 ack 60 [0 0 0 0] ------- [1:0 5:0 32 5] [3 0] 0 0
r 2.295033436 _9_ AGT  --- 49 tcp 1060 [13a 9 8 800] ------- [8:3 9:0 32 9] [10 0] 1 0
s 2.295033436 _9_ AGT  --- 82 ack 40 [0 0 0 0] ------- [9:0 8:3 32 0] [10 0] 0 0
r 2.295033436 _9_ RTR  --- 82 ack 40 [0 0 0 0] ------- [9:0 8:3 32 0] [10 0] 0 0
s 2.295033436 _9_ RTR  --- 82 ack 60 [0 0 0 0] ------- [9:0 8:3 32 8] [10 0] 0 0
r 2.297058134 _5_ AGT  --- 81 ack 60 [13a 5 1 800] ------- [1:0 5:0 32 5] [3 0] 1 0
s 2.297058134 _5_ AGT  --- 83 tcp 1040 [0 0 0 0] ------- [5:0 1:0 32 0] [7 0] 0 0
r 2.297058134 _5_ RTR  --- 83 tcp 1040 [0 0 0 0] ------- [5:0 1:0 32 0] [7 0] 0 0
s 2.297058134 _5_ RTR  --- 83 tcp 1060 [0 0 0 0] ------- [5:0 1:0 32 1] [7 0] 0 0
s 2.297058134 _5_ AGT  --- 84 tcp 1040 [0 0 0 0] ------- [5:0 1:0 32 0] [8 0] 0 0
r 2.297058134 _5_ RTR  --- 84 tcp 1040 [0 0 0 0] ------- [5:0 1:0 32 0] [8 0] 0 0
s 2.297058134 _5_ RTR  --- 84 tcp 1060 [0 0 0 0] ------- [5:0 1:0 32 1] [8 0] 0 0
r 2.307142494 _1_ AGT  --- 60 tcp 1060 [13a 1 5 800] ------- [5:0 1:0 32 1] [4 0] 1 0
s 2.307142494 _1_ AGT  --- 85 ack 40 [0 0 0 0] ------- [1:0 5:0 32 0] [4 0] 0 0
r 2.307142494 _1_ RTR  --- 85 ack 40 [0 0 0 0] ------- [1:0 5:0 32 0] [4 0] 0 0
s 2.307142494 _1_ RTR  --- 85 ack 60 [0 0 0 0] ------- [1:0 5:0 32 5] [4 0] 0 0
r 2.317126976 _1_ AGT  --- 64 tcp 1060 [13a 1 5 800] ------- [5:0 1:0 32 1] [5 0] 1 0
s 2.317126976 _1_ AGT  --- 86 ack 40 [0 0 0 0] ------- [1:0 5:0 32 0] [5 0] 0 0
r 2.317126976 _1_ RTR  --- 86 ack 40 [0 0 0 0] ------- [1:0 5:0 32 0] [5 0] 0 0
s 2.317126976 _1_ RTR  --- 86 ack 60 [0 0 0 0] ------- [1:0 5:0 32 5] [5 0] 0 0
r 2.319171385 _5_ AGT  --- 67 ack 60 [13a 5 4 800] ------- [4:0 5:2 32 5] [4 0] 1 0
s 2.319171385 _5_ AGT  --- 87 tcp 1040 [0 0 0 0] ------- [5:2 4:0 32 0] [9 0] 0 0
r 2.319171385 _5_ RTR  --- 87 tcp 1040 [0 0 0 0] ------- [5:2 4:0 32 0] [9 0] 0 0
s 2.319171385 _5_ RTR  --- 87 tcp 1060 [0 0 0 0] ------- [5:2 4:0 32 4] [9 0] 0 0
s 2.319171385 _5_ AGT  --- 88 tcp 1040 [0 0 0 0] ------- [5:2 4:0 32 0] [10 0] 0 0
r 2.319171385 _5_ RTR  --- 88 tcp 1040 [0 0 0 0] ------- [5:2 4:0 32 0] [10 0] 0 0
s 2.319171385 _5_ RTR  --- 88 tcp 1060 [0 0 0 0] ------- [5:2 4:0 32 4] [10 0] 0 0
r 2.321275870 _5_ AGT  --- 85 ack 60 [13a 5 1 800] ------- [1:0 5:0 32 5] [4 0] 1 0
s 2.321275870 _5_ AGT  --- 89 tcp 1040 [0 0 0 0] ------- [5:0 1:0 32 0] [9 0] 0 0
r 2.321275870 _5_ RTR  --- 89 tcp 1040 [0 0 0 0] ------- [5:0 1:0 32 0] [9 0] 0 0
s 2.321275870 _5_ RTR  --- 89 tcp 1060 [0 0 0 0] ------- [5:0 1:0 32 1] [9 0] 0 0
s 2.321275870 _5_ AGT  --- 90 tcp 1040 [0 0 0 0] ------- [5:0 1:0 32 0] [10 0] 0 0
r 2.321275870 _5_ RTR  --- 90 tcp 1040 [0 0 0 0] ------- [5:0 1:0 32 0] [10 0] 0 0
s 2.321275870 _5_ RTR  --- 90 tcp 1060 [0 0 0 0] ------- [5:0 1:0 32 1] [10 0] 0 0
r 2.323300490 _8_ AGT  --- 62 ack 60 [13a 8 9 800] ------- [9:0 8:3 32 8] [7 0] 1 0
s 2.323300490 _8_ AGT  --- 91 tcp 1040 [0 0 0 0] ------- [8:3 9:0 32 0] [15 0] 0 0
r 2.323300490 _8_ RTR  --- 91 tcp 1040 [0 0 0 0] ------- [8:3 9:0 32 0] [15 0] 0 0