M 0.00000 0 (70.00, 500.00, 0.00), (200.00, 50.00), 60.00
M 0.00000 1 (30.00, 50.00, 0.00), (200.00, 50.00), 70.00
M 0.00000 2 (10.00, 50.00, 0.00), (200.00, 50.00), 70.00
M 0.00000 3 (20.00, 25.00, 0.00), (200.00, 25.00), 65.00
M 0.00000 4 (20.00, 50.00, 0.00), (200.00, 50.00), 75.00
M 0.00000 5 (40.00, 50.00, 0.00), (200.00, 50.00), 90.00
M 0.00000 6 (50.00, 25.00, 0.00), (200.00, 25.00), 120.00
M 0.00000 7 (60.00, 25.00, 0.00), (200.00, 25.00), 60.00
M 0.00000 8 (60.00, 50.00, 0.00), (200.00, 50.00), 95.00
M 0.00000 9 (80.00, 50.00, 0.00), (200.00, 50.00), 110.00
s 0.087337168 _5_ RTR  --- 0 message 32 [0 0 0 0] ------- [5:255 -1:255 32 0] 
r 0.088477207 _1_ RTR  --- 0 message 32 [0 ffffffff 5 800] ------- [5:255 -1:255 32 0] 
r 0.088477236 _8_ RTR  --- 0 message 32 [0 ffffffff 5 800] ------- [5:255 -1:255 32 0] 
r 0.088477239 _4_ RTR  --- 0 message 32 [0 ffffffff 5 800] ------- [5:255 -1:255 32 0] 
r 0.088477261 _6_ RTR  --- 0 message 32 [0 ffffffff 5 800] ------- [5:255 -1:255 32 0] 
r 0.088477269 _7_ RTR  --- 0 message 32 [0 ffffffff 5 800] ------- [5:255 -1:255 32 0] 
r 0.088477274 _2_ RTR  --- 0 message 32 [0 ffffffff 5 800] ------- [5:255 -1:255 32 0] 
r 0.088477279 _3_ RTR  --- 0 message 32 [0 ffffffff 5 800] ------- [5:255 -1:255 32 0] 
r 0.088477307 _9_ RTR  --- 0 message 32 [0 ffffffff 5 800] ------- [5:255 -1:255 32 0] 
s 0.230197377 _7_ RTR  --- 1 message 32 [0 0 0 0] ------- [7:255 -1:255 32 0] 
r 0.231257389 _6_ RTR  --- 1 message 32 [0 ffffffff 7 800] ------- [7:255 -1:255 32 0] 
r 0.231257464 _8_ RTR  --- 1 message 32 [0 ffffffff 7 800] ------- [7:255 -1:255 32 0] 
r 0.231257471 _5_ RTR  --- 1 message 32 [0 ffffffff 7 800] ------- [7:255 -1:255 32 0] 
r 0.231257501 _1_ RTR  --- 1 message 32 [0 ffffffff 7 800] ------- [7:255 -1:255 32 0] 
r 0.231257506 _3_ RTR  --- 1 message 32 [0 ffffffff 7 800] ------- [7:255 -1:255 32 0] 
r 0.231257511 _9_ RTR  --- 1 message 32 [0 ffffffff 7 800] ------- [7:255 -1:255 32 0] 
r 0.231257524 _4_ RTR  --- 1 message 32 [0 ffffffff 7 800] ------- [7:255 -1:255 32 0] 
r 0.231257556 _2_ RTR  --- 1 message 32 [0 ffffffff 7 800] ------- [7:255 -1:255 32 0] 
s 0.335213882 _4_ RTR  --- 2 message 32 [0 0 0 0] ------- [4:255 -1:255 32 0] 
r 0.336433909 _1_ RTR  --- 2 message 32 [0 ffffffff 4 800] ------- [4:255 -1:255 32 0] 
r 0.336433920 _2_ RTR  --- 2 message 32 [0 ffffffff 4 800] ------- [4:255 -1:255 32 0] 
r 0.336433965 _5_ RTR  --- 2 message 32 [0 ffffffff 4 800] ------- [4:255 -1:255 32 0] 
r 0.336433966 _3_ RTR  --- 2 message 32 [0 ffffffff 4 800] ------- [4:255 -1:255 32 0] 
r 0.336434025 _7_ RTR  --- 2 message 32 [0 ffffffff 4 800] ------- [4:255 -1:255 32 0] 
r 0.336434037 _8_ RTR  --- 2 message 32 [0 ffffffff 4 800] ------- [4:255 -1:255 32 0] 
r 0.336434053 _6_ RTR  --- 2 message 32 [0 ffffffff 4 800] ------- [4:255 -1:255 32 0] 
r 0.336434121 _9_ RTR  --- 2 message 32 [0 ffffffff 4 800] ------- [4:255 -1:255 32 0] 
s 0.471615760 _0_ RTR  --- 3 message 32 [0 0 0 0] ------- [0:255 -1:255 32 0] 
s 0.627207570 _2_ RTR  --- 4 message 32 [0 0 0 0] ------- [2:255 -1:255 32 0] 
r 0.628307614 _4_ RTR  --- 4 message 32 [0 ffffffff 2 800] ------- [2:255 -1:255 32 0] 
r 0.628307637 _1_ RTR  --- 4 message 32 [0 ffffffff 2 800] ------- [2:255 -1:255 32 0] 
r 0.628307657 _3_ RTR  --- 4 message 32 [0 ffffffff 2 800] ------- [2:255 -1:255 32 0] 
r 0.628307712 _5_ RTR  --- 4 message 32 [0 ffffffff 2 800] ------- [2:255 -1:255 32 0] 
r 0.628307738 _7_ RTR  --- 4 message 32 [0 ffffffff 2 800] ------- [2:255 -1:255 32 0] 
r 0.628307789 _8_ RTR  --- 4 message 32 [0 ffffffff 2 800] ------- [2:255 -1:255 32 0] 
r 0.628307822 _6_ RTR  --- 4 message 32 [0 ffffffff 2 800] ------- [2:255 -1:255 32 0] 
r 0.628307887 _9_ RTR  --- 4 message 32 [0 ffffffff 2 800] ------- [2:255 -1:255 32 0] 
s 0.849187125 _9_ RTR  --- 5 message 32 [0 0 0 0] ------- [9:255 -1:255 32 0] 
r 0.850227234 _8_ RTR  --- 5 message 32 [0 ffffffff 9 800] ------- [9:255 -1:255 32 0] 
r 0.850227235 _6_ RTR  --- 5 message 32 [0 ffffffff 9 800] ------- [9:255 -1:255 32 0] 
r 0.850227315 _5_ RTR  --- 5 message 32 [0 ffffffff 9 800] ------- [9:255 -1:255 32 0] 
r 0.850227349 _7_ RTR  --- 5 message 32 [0 ffffffff 9 800] ------- [9:255 -1:255 32 0] 
r 0.850227405 _1_ RTR  --- 5 message 32 [0 ffffffff 9 800] ------- [9:255 -1:255 32 0] 
r 0.850227424 _4_ RTR  --- 5 message 32 [0 ffffffff 9 800] ------- [9:255 -1:255 32 0] 
r 0.850227463 _3_ RTR  --- 5 message 32 [0 ffffffff 9 800] ------- [9:255 -1:255 32 0] 
r 0.850227472 _2_ RTR  --- 5 message 32 [0 ffffffff 9 800] ------- [9:255 -1:255 32 0] 
s 1.278850600 _1_ RTR  --- 6 message 32 [0 0 0 0] ------- [1:255 -1:255 32 0] 
r 1.279790612 _4_ RTR  --- 6 message 32 [0 ffffffff 1 800] ------- [1:255 -1:255 32 0] 
r 1.279790666 _2_ RTR  --- 6 message 32 [0 ffffffff 1 800] ------- [1:255 -1:255 32 0] 
r 1.279790699 _3_ RTR  --- 6 message 32 [0 ffffffff 1 800] ------- [1:255 -1:255 32 0] 
r 1.279790701 _7_ RTR  --- 6 message 32 [0 ffffffff 1 800] ------- [1:255 -1:255 32 0] 
r 1.279790718 _5_ RTR  --- 6 message 32 [0 ffffffff 1 800] ------- [1:255 -1:255 32 0] 
r 1.279790806 _8_ RTR  --- 6 message 32 [0 ffffffff 1 800] ------- [1:255 -1:255 32 0] 
r 1.279790868 _9_ RTR  --- 6 message 32 [0 ffffffff 1 800] ------- [1:255 -1:255 32 0] 
r 1.279790881 _6_ RTR  --- 6 message 32 [0 ffffffff 1 800] ------- [1:255 -1:255 32 0] 
s 1.283491946 _6_ RTR  --- 7 message 32 [0 0 0 0] ------- [6:255 -1:255 32 0] 
r 1.284492029 _9_ RTR  --- 7 message 32 [0 ffffffff 6 800] ------- [6:255 -1:255 32 0] 
r 1.284492049 _8_ RTR  --- 7 message 32 [0 ffffffff 6 800] ------- [6:255 -1:255 32 0] 
r 1.284492116 _5_ RTR  --- 7 message 32 [0 ffffffff 6 800] ------- [6:255 -1:255 32 0] 
r 1.284492156 _7_ RTR  --- 7 message 32 [0 ffffffff 6 800] ------- [6:255 -1:255 32 0] 
r 1.284492226 _1_ RTR  --- 7 message 32 [0 ffffffff 6 800] ------- [6:255 -1:255 32 0] 
r 1.284492237 _4_ RTR  --- 7 message 32 [0 ffffffff 6 800] ------- [6:255 -1:255 32 0] 
r 1.284492268 _3_ RTR  --- 7 message 32 [0 ffffffff 6 800] ------- [6:255 -1:255 32 0] 
r 1.284492290 _2_ RTR  --- 7 message 32 [0 ffffffff 6 800] ------- [6:255 -1:255 32 0] 
s 1.679633806 _3_ RTR  --- 8 message 32 [0 0 0 0] ------- [3:255 -1:255 32 0] 
r 1.680673890 _2_ RTR  --- 8 message 32 [0 ffffffff 3 800] ------- [3:255 -1:255 32 0] 
r 1.680673907 _4_ RTR  --- 8 message 32 [0 ffffffff 3 800] ------- [3:255 -1:255 32 0] 
r 1.680673910 _1_ RTR  --- 8 message 32 [0 ffffffff 3 800] ------- [3:255 -1:255 32 0] 
r 1.680673911 _7_ RTR  --- 8 message 32 [0 ffffffff 3 800] ------- [3:255 -1:255 32 0] 
r 1.680674029 _5_ RTR  --- 8 message 32 [0 ffffffff 3 800] ------- [3:255 -1:255 32 0] 
r 1.680674042 _6_ RTR  --- 8 message 32 [0 ffffffff 3 800] ------- [3:255 -1:255 32 0] 
r 1.680674056 _8_ RTR  --- 8 message 32 [0 ffffffff 3 800] ------- [3:255 -1:255 32 0] 
r 1.680674056 _9_ RTR  --- 8 message 32 [0 ffffffff 3 800] ------- [3:255 -1:255 32 0] 
s 1.725003792 _8_ RTR  --- 9 message 32 [0 0 0 0] ------- [8:255 -1:255 32 0] 
r 1.725903792 _9_ RTR  --- 9 message 32 [0 ffffffff 8 800] ------- [8:255 -1:255 32 0] 
r 1.725903807 _5_ RTR  --- 9 message 32 [0 ffffffff 8 800] ------- [8:255 -1:255 32 0] 
r 1.725903875 _6_ RTR  --- 9 message 32 [0 ffffffff 8 800] ------- [8:255 -1:255 32 0] 
r 1.725903939 _7_ RTR  --- 9 message 32 [0 ffffffff 8 800] ------- [8:255 -1:255 32 0] 
r 1.725903956 _1_ RTR  --- 9 message 32 [0 ffffffff 8 800] ------- [8:255 -1:255 32 0] 
r 1.725903960 _4_ RTR  --- 9 message 32 [0 ffffffff 8 800] ------- [8:255 -1:255 32 0] 
r 1.725904022 _2_ RTR  --- 9 message 32 [0 ffffffff 8 800] ------- [8:255 -1:255 32 0] 
r 1.725904033 _3_ RTR  --- 9 message 32 [0 ffffffff 8 800] ------- [8:255 -1:255 32 0] 
s 2.000000000 _5_ AGT  --- 10 tcp 40 [0 0 0 0] ------- [5:0 1:0 32 0] [0 0] 0 0
r 2.000000000 _5_ RTR  --- 10 tcp 40 [0 0 0 0] ------- [5:0 1:0 32 0] [0 0] 0 0
s 2.000000000 _5_ RTR  --- 10 tcp 60 [0 0 0 0] ------- [5:0 1:0 32 1] [0 0] 0 0
s 2.000000000 _5_ AGT  --- 11 tcp 40 [0 0 0 0] ------- [5:1 2:0 32 0] [0 0] 0 0
r 2.000000000 _5_ RTR  --- 11 tcp 40 [0 0 0 0] ------- [5:1 2:0 32 0] [0 0] 0 0
s 2.000000000 _5_ RTR  --- 11 tcp 60 [0 0 0 0] ------- [5:1 2:0 32 2] [0 0] 0 0
s 2.000000000 _5_ AGT  --- 12 tcp 40 [0 0 0 0] ------- [5:2 4:0 32 0] [0 0] 0 0
r 2.000000000 _5_ RTR  --- 12 tcp 40 [0 0 0 0] ------- [5:2 4:0 32 0] [0 0] 0 0
s 2.000000000 _5_ RTR  --- 12 tcp 60 [0 0 0 0] ------- [5:2 4:0 32 4] [0 0] 0 0
s 2.000000000 _5_ AGT  --- 13 tcp 40 [0 0 0 0] ------- [5:3 6:0 32 0] [0 0] 0 0
r 2.000000000 _5_ RTR  --- 13 tcp 40 [0 0 0 0] ------- [5:3 6:0 32 0] [0 0] 0 0
s 2.000000000 _5_ RTR  --- 13 tcp 60 [0 0 0 0] ------- [5:3 6:0 32 6] [0 0] 0 0
s 2.000000000 _8_ AGT  --- 14 tcp 40 [0 0 0 0] ------- [8:0 0:0 32 0] [0 0] 0 0
r 2.000000000 _8_ RTR  --- 14 tcp 40 [0 0 0 0] ------- [8:0 0:0 32 0] [0 0] 0 0
s 2.000000000 _8_ AGT  --- 15 tcp 40 [0 0 0 0] ------- [8:1 3:0 32 0] [0 0] 0 0
r 2.000000000 _8_ RTR  --- 15 tcp 40 [0 0 0 0] ------- [8:1 3:0 32 0] [0 0] 0 0
s 2.000000000 _8_ RTR  --- 15 tcp 60 [0 0 0 0] ------- [8:1 3:0 32 3] [0 0] 0 0
s 2.000000000 _8_ AGT  --- 16 tcp 40 [0 0 0 0] ------- [8:2 7:0 32 0] [0 0] 0 0
r 2.000000000 _8_ RTR  --- 16 tcp 40 [0 0 0 0] ------- [8:2 7:0 32 0] [0 0] 0 0
s 2.000000000 _8_ RTR  --- 16 tcp 60 [0 0 0 0] ------- [8:2 7:0 32 7] [0 0] 0 0
s 2.000000000 _8_ AGT  --- 17 tcp 40 [0 0 0 0] ------- [8:3 9:0 32 0] [0 0] 0 0
r 2.000000000 _8_ RTR  --- 17 tcp 40 [0 0 0 0] ------- [8:3 9:0 32 0] [0 0] 0 0
s 2.000000000 _8_ RTR  --- 17 tcp 60 [0 0 0 0] ------- [8:3 9:0 32 9] [0 0] 0 0
r 2.016513507 _1_ AGT  --- 10 tcp 60 [13a 1 5 800] ------- [5:0 1:0 32 1] [0 0] 1 0
s 2.016513507 _1_ AGT  --- 18 ack 40 [0 0 0 0] ------- [1:0 5:0 32 0] [0 0] 0 0
r 2.016513507 _1_ RTR  --- 18 ack 40 [0 0 0 0] ------- [1:0 5:0 32 0] [0 0] 0 0
s 2.016513507 _1_ RTR  --- 18 ack 60 [0 0 0 0] ------- [1:0 5:0 32 5] [0 0] 0 0
r 2.018517917 _7_ AGT  --- 16 tcp 60 [13a 7 8 800] ------- [8:2 7:0 32 7] [0 0] 1 0
s 2.018517917 _7_ AGT  --- 19 ack 40 [0 0 0 0] ------- [7:0 8:2 32 0] [0 0] 0 0
r 2.018517917 _7_ RTR  --- 19 ack 40 [0 0 0 0] ------- [7:0 8:2 32 0] [0 0] 0 0
s 2.018517917 _7_ RTR  --- 19 ack 60 [0 0 0 0] ------- [7:0 8:2 32 8] [0 0] 0 0
r 2.020542293 _5_ AGT  --- 18 ack 60 [13a 5 1 800] ------- [1:0 5:0 32 5] [0 0] 1 0
s 2.020542293 _5_ AGT  --- 20 tcp 1040 [0 0 0 0] ------- [5:0 1:0 32 0] [1 0] 0 0
r 2.020542293 _5_ RTR  --- 20 tcp 1040 [0 0 0 0] ------- [5:0 1:0 32 0] [1 0] 0 0
s 2.020542293 _5_ RTR  --- 20 tcp 1060 [0 0 0 0] ------- [5:0 1:0 32 1] [1 0] 0 0
s 2.020542293 _5_ AGT  --- 21 tcp 1040 [0 0 0 0] ------- [5:0 1:0 32 0] [2 0] 0 0
r 2.020542293 _5_ RTR  --- 21 tcp 1040 [0 0 0 0] ------- [5:0 1:0 32 0] [2 0] 0 0
s 2.020542293 _5_ RTR  --- 21 tcp 1060 [0 0 0 0] ------- [5:0 1:0 32 1] [2 0] 0 0
r 2.022606709 _8_ AGT  --- 19 ack 60 [13a 8 7 800] ------- [7:0 8:2 32 8] [0 0] 1 0
s 2.022606709 _8_ AGT  --- 22 tcp 1040 [0 0 0 0] ------- [8:2 7:0 32 0] [1 0] 0 0
r 2.022606709 _8_ RTR  --- 22 tcp 1040 [0 0 0 0] ------- [8:2 7:0 32 0] [1 0] 0 0
s 2.022606709 _8_ RTR  --- 22 tcp 1060 [0 0 0 0] ------- [8:2 7:0 32 7] [1 0] 0 0
s 2.022606709 _8_ AGT  --- 23 tcp 1040 [0 0 0 0] ------- [8:2 7:0 32 0] [2 0] 0 0
r 2.022606709 _8_ RTR  --- 23 tcp 1040 [0 0 0 0] ------- [8:2 7:0 32 0] [2 0] 0 0
s 2.022606709 _8_ RTR  --- 23 tcp 1060 [0 0 0 0] ------- [8:2 7:0 32 7] [2 0] 0 0
r 2.026759525 _2_ AGT  --- 11 tcp 60 [13a 2 5 800] ------- [5:1 2:0 32 2] [0 0] 1 0
s 2.026759525 _2_ AGT  --- 24 ack 40 [0 0 0 0] ------- [2:0 5:1 32 0] [0 0] 0 0
r 2.026759525 _2_ RTR  --- 24 ack 40 [0 0 0 0] ------- [2:0 5:1 32 0] [0 0] 0 0
s 2.026759525 _2_ RTR  --- 24 ack 60 [0 0 0 0] ------- [2:0 5:1 32 5] [0 0] 0 0
r 2.028783685 _9_ AGT  --- 17 tcp 60 [13a 9 8 800] ------- [8:3 9:0 32 9] [0 0] 1 0
s 2.028783685 _9_ AGT  --- 25 ack 40 [0 0 0 0] ------- [9:0 8:3 32 0] [0 0] 0 0
r 2.028783685 _9_ RTR  --- 25 ack 40 [0 0 0 0] ------- [9:0 8:3 32 0] [0 0] 0 0
s 2.028783685 _9_ RTR  --- 25 ack 60 [0 0 0 0] ------- [9:0 8:3 32 8] [0 0] 0 0
r 2.030808227 _3_ AGT  --- 15 tcp 60 [13a 3 8 800] ------- [8:1 3:0 32 3] [0 0] 1 0
s 2.030808227 _3_ AGT  --- 26 ack 40 [0 0 0 0] ------- [3:0 8:1 32 0] [0 0] 0 0
r 2.030808227 _3_ RTR  --- 26 ack 40 [0 0 0 0] ------- [3:0 8:1 32 0] [0 0] 0 0
s 2.030808227 _3_ RTR  --- 26 ack 60 [0 0 0 0] ------- [3:0 8:1 32 8] [0 0] 0 0
r 2.033799044 _5_ AGT  --- 24 ack 60 [13a 5 2 800] ------- [2:0 5:1 32 5] [0 0] 1 0
s 2.033799044 _5_ AGT  --- 27 tcp 1040 [0 0 0 0] ------- [5:1 2:0 32 0] [1 0] 0 0
r 2.033799044 _5_ RTR  --- 27 tcp 1040 [0 0 0 0] ------- [5:1 2:0 32 0] [1 0] 0 0
s 2.033799044 _5_ RTR  --- 27 tcp 1060 [0 0 0 0] ------- [5:1 2:0 32 2] [1 0] 0 0
s 2.033799044 _5_ AGT  --- 28 tcp 1040 [0 0 0 0] ------- [5:1 2:0 32 0] [2 0] 0 0
r 2.033799044 _5_ RTR  --- 28 tcp 1040 [0 0 0 0] ------- [5:1 2:0 32 0] [2 0] 0 0
s 2.033799044 _5_ RTR  --- 28 tcp 1060 [0 0 0 0] ------- [5:1 2:0 32 2] [2 0] 0 0
r 2.035843044 _8_ AGT  --- 25 ack 60 [13a 8 9 800] ------- [9:0 8:3 32 8] [0 0] 1 0
s 2.035843044 _8_ AGT  --- 29 tcp 1040 [0 0 0 0] ------- [8:3 9:0 32 0] [1 0] 0 0
r 2.035843044 _8_ RTR  --- 29 tcp 1040 [0 0 0 0] ------- [8:3 9:0 32 0] [1 0] 0 0
s 2.035843044 _8_ RTR  --- 29 tcp 1060 [0 0 0 0] ------- [8:3 9:0 32 9] [1 0] 0 0
s 2.035843044 _8_ AGT  --- 30 tcp 1040 [0 0 0 0] ------- [8:3 9:0 32 0] [2 0] 0 0
r 2.035843044 _8_ RTR  --- 30 tcp 1040 [0 0 0 0] ------- [8:3 9:0 32 0] [2 0] 0 0
s 2.035843044 _8_ RTR  --- 30 tcp 1060 [0 0 0 0] ------- [8:3 9:0 32 9] [2 0] 0 0
r 2.045927318 _1_ AGT  --- 20 tcp 1060 [13a 1 5 800] ------- [5:0 1:0 32 1] [1 0] 1 0
s 2.045927318 _1_ AGT  --- 31 ack 40 [0 0 0 0] ------- [1:0 5:0 32 0] [1 0] 0 0
r 2.045927318 _1_ RTR  --- 31 ack 40 [0 0 0 0] ------- [1:0 5:0 32 0] [1 0] 0 0
s 2.045927318 _1_ RTR  --- 31 ack 60 [0 0 0 0] ------- [1:0 5:0 32 5] [1 0] 0 0
r 2.048031586 _5_ AGT  --- 31 ack 60 [13a 5 1 800] ------- [1:0 5:0 32 5] [1 0] 1 0
s 2.048031586 _5_ AGT  --- 32 tcp 1040 [0 0 0 0] ------- [5:0 1:0 32 0] [3 0] 0 0
r 2.048031586 _5_ RTR  --- 32 tcp 1040 [0 0 0 0] ------- [5:0 1:0 32 0] [3 0] 0 0
s 2.048031586 _5_ RTR  --- 32 tcp 1060 [0 0 0 0] ------- [5:0 1:0 32 1] [3 0] 0 0
s 2.048031586 _5_ AGT  --- 33 tcp 1040 [0 0 0 0] ------- [5:0 1:0 32 0] [4 0] 0 0
r 2.048031586 _5_ RTR  --- 33 tcp 1040 [0 0 0 0] ------- [5:0 1:0 32 0] [4 0] 0 0
s 2.048031586 _5_ RTR  --- 33 tcp 1060 [0 0 0 0] ------- [5:0 1:0 32 1] [4 0] 0 0
r 2.058075851 _1_ AGT  --- 21 tcp 1060 [13a 1 5 800] ------- [5:0 1:0 32 1] [2 0] 1 0
s 2.058075851 _1_ AGT  --- 34 ack 40 [0 0 0 0] ------- [1:0 5:0 32 0] [2 0] 0 0
r 2.058075851 _1_ RTR  --- 34 ack 40 [0 0 0 0] ------- [1:0 5:0 32 0] [2 0] 0 0
s 2.058075851 _1_ RTR  --- 34 ack 60 [0 0 0 0] ------- [1:0 5:0 32 5] [2 0] 0 0
r 2.060060188 _6_ AGT  --- 13 tcp 60 [13a 6 5 800] ------- [5:3 6:0 32 6] [0 0] 1 0
s 2.060060188 _6_ AGT  --- 35 ack 40 [0 0 0 0] ------- [6:0 5:3 32 0] [0 0] 0 0
r 2.060060188 _6_ RTR  --- 35 ack 40 [0 0 0 0] ------- [6:0 5:3 32 0] [0 0] 0 0
s 2.060060188 _6_ RTR  --- 35 ack 60 [0 0 0 0] ------- [6:0 5:3 32 5] [0 0] 0 0
r 2.062104866 _8_ AGT  --- 26 ack 60 [13a 8 3 800] ------- [3:0 8:1 32 8] [0 0] 1 0
s 2.062104866 _8_ AGT  --- 36 tcp 1040 [0 0 0 0] ------- [8:1 3:0 32 0] [1 0] 0 0
r 2.062104866 _8_ RTR  --- 36 tcp 1040 [0 0 0 0] ------- [8:1 3:0 32 0] [1 0] 0 0
s 2.062104866 _8_ RTR  --- 36 tcp 1060 [0 0 0 0] ------- [8:1 3:0 32 3] [1 0] 0 0
s 2.062104866 _8_ AGT  --- 37 tcp 1040 [0 0 0 0] ------- [8:1 3:0 32 0] [2 0] 0 0
r 2.062104866 _8_ RTR  --- 37 tcp 1040 [0 0 0 0] ------- [8:1 3:0 32 0] [2 0] 0 0
s 2.062104866 _8_ RTR  --- 37 tcp 1060 [0 0 0 0] ------- [8:1 3:0 32 3] [2 0] 0 0
r 2.064169199 _5_ AGT  --- 35 ack 60 [13a 5 6 800] ------- [6:0 5:3 32 5] [0 0] 1 0
s 2.064169199 _5_ AGT  --- 38 tcp 1040 [0 0 0 0] ------- [5:3 6:0 32 0] [1 0] 0 0
r 2.064169199 _5_ RTR  --- 38 tcp 1040 [0 0 0 0] ------- [5:3 6:0 32 0] [1 0] 0 0
s 2.064169199 _5_ RTR  --- 38 tcp 1060 [0 0 0 0] ------- [5:3 6:0 32 6] [1 0] 0 0
s 2.064169199 _5_ AGT  --- 39 tcp 1040 [0 0 0 0] ------- [5:3 6:0 32 0] [2 0] 0 0
r 2.064169199 _5_ RTR  --- 39 tcp 1040 [0 0 0 0] ------- [5:3 6:0 32 0] [2 0] 0 0
s 2.064169199 _5_ RTR  --- 39 tcp 1060 [0 0 0 0] ------- [5:3 6:0 32 6] [2 0] 0 0
r 2.066193539 _5_ AGT  --- 34 ack 60 [13a 5 1 800] ------- [1:0 5:0 32 5] [2 0] 1 0
s 2.066193539 _5_ AGT  --- 40 tcp 1040 [0 0 0 0] ------- [5:0 1:0 32 0] [5 0] 0 0
r 2.066193539 _5_ RTR  --- 40 tcp 1040 [0 0 0 0] ------- [5:0 1:0 32 0] [5 0] 0 0
s 2.066193539 _5_ RTR  --- 40 tcp 1060 [0 0 0 0] ------- [5:0 1:0 32 1] [5 0] 0 0
s 2.066193539 _5_ AGT  --- 41 tcp 1040 [0 0 0 0] ------- [5:0 1:0 32 0] [6 0] 0 0
r 2.066193539 _5_ RTR  --- 41 tcp 1040 [0 0 0 0] ------- [5:0 1:0 32 0] [6 0] 0 0
s 2.066193539 _5_ RTR  --- 41 tcp 1060 [0 0 0 0] ------- [5:0 1:0 32 1] [6 0] 0 0
r 2.076357992 _2_ AGT  --- 27 tcp 1060 [13a 2 5 800] ------- [5:1 2:0 32 2] [1 0] 1 0
s 2.076357992 _2_ AGT  --- 42 ack 40 [0 0 0 0] ------- [2:0 5:1 32 0] [1 0] 0 0
r 2.076357992 _2_ RTR  --- 42 ack 40 [0 0 0 0] ------- [2:0 5:1 32 0] [1 0] 0 0
s 2.076357992 _2_ RTR  --- 42 ack 60 [0 0 0 0] ------- [2:0 5:1 32 5] [1 0] 0 0
r 2.086462434 _7_ AGT  --- 22 tcp 1060 [13a 7 8 800] ------- [8:2 7:0 32 7] [1 0] 1 0
s 2.086462434 _7_ AGT  --- 43 ack 40 [0 0 0 0] ------- [7:0 8:2 32 0] [1 0] 0 0
r 2.086462434 _7_ RTR  --- 43 ack 40 [0 0 0 0] ------- [7:0 8:2 32 0] [1 0] 0 0
s 2.086462434 _7_ RTR  --- 43 ack 60 [0 0 0 0] ------- [7:0 8:2 32 8] [1 0] 0 0
r 2.088466724 _8_ AGT  --- 43 ack 60 [13a 8 7 800] ------- [7:0 8:2 32 8] [1 0] 1 0
s 2.088466724 _8_ AGT  --- 44 tcp 1040 [0 0 0 0] ------- [8:2 7:0 32 0] [3 0] 0 0
r 2.088466724 _8_ RTR  --- 44 tcp 1040 [0 0 0 0] ------- [8:2 7:0 32 0] [3 0] 0 0
s 2.088466724 _8_ RTR  --- 44 tcp 1060 [0 0 0 0] ------- [8:2 7:0 32 7] [3 0] 0 0
s 2.088466724 _8_ AGT  --- 45 tcp 1040 [0 0 0 0] ------- [8:2 7:0 32 0] [4 0] 0 0
r 2.088466724 _8_ RTR  --- 45 tcp 1040 [0 0 0 0] ------- [8:2 7:0 32 0] [4 0] 0 0
s 2.088466724 _8_ RTR  --- 45 tcp 1060 [0 0 0 0] ------- [8:2 7:0 32 7] [4 0] 0 0
r 2.098491162 _2_ AGT  --- 28 tcp 1060 [13a 2 5 800] ------- [5:1 2:0 32 2] [2 0] 1 0
s 2.098491162 _2_ AGT  --- 46 ack 40 [0 0 0 0] ------- [2:0 5:1 32 0] [2 0] 0 0
r 2.098491162 _2_ RTR  --- 46 ack 40 [0 0 0 0] ------- [2:0 5:1 32 0] [2 0] 0 0
s 2.098491162 _2_ RTR  --- 46 ack 60 [0 0 0 0] ------- [2:0 5:1 32 5] [2 0] 0 0
r 2.108475536 _1_ AGT  --- 32 tcp 1060 [13a 1 5 800] ------- [5:0 1:0 32 1] [3 0] 1 0
s 2.108475536 _1_ AGT  --- 47 ack 40 [0 0 0 0] ------- [1:0 5:0 32 0] [3 0] 0 0
r 2.108475536 _1_ RTR  --- 47 ack 40 [0 0 0 0] ------- [1:0 5:0 32 0] [3 0] 0 0
s 2.108475536 _1_ RTR  --- 47 ack 60 [0 0 0 0] ------- [1:0 5:0 32 5] [3 0] 0 0
r 2.118519834 _1_ AGT  --- 33 tcp 1060 [13a 1 5 800] ------- [5:0 1:0 32 1] [4 0] 1 0
s 2.118519834 _1_ AGT  --- 48 ack 40 [0 0 0 0] ------- [1:0 5:0 32 0] [4 0] 0 0
r 2.118519834 _1_ RTR  --- 48 ack 40 [0 0 0 0] ------- [1:0 5:0 32 0] [4 0] 0 0
s 2.118519834 _1_ RTR  --- 48 ack 60 [0 0 0 0] ------- [1:0 5:0 32 5] [4 0] 0 0
r 2.120624317 _5_ AGT  --- 42 ack 60 [13a 5 2 800] ------- [2:0 5:1 32 5] [1 0] 1 0
s 2.120624317 _5_ AGT  --- 49 tcp 1040 [0 0 0 0] ------- [5:1 2:0 32 0] [3 0] 0 0
r 2.120624317 _5_ RTR  --- 49 tcp 1040 [0 0 0 0] ------- [5:1 2:0 32 0] [3 0] 0 0
s 2.120624317 _5_ RTR  --- 49 tcp 1060 [0 0 0 0] ------- [5:1 2:0 32 2] [3 0] 0 0
s 2.120624317 _5_ AGT  --- 50 tcp 1040 [0 0 0 0] ------- [5:1 2:0 32 0] [4 0] 0 0
r 2.120624317 _5_ RTR  --- 50 tcp 1040 [0 0 0 0] ------- [5:1 2:0 32 0] [4 0] 0 0
s 2.120624317 _5_ RTR  --- 50 tcp 1060 [0 0 0 0] ------- [5:1 2:0 32 2] [4 0] 0 0
r 2.122628604 _5_ AGT  --- 47 ack 60 [13a 5 1 800] ------- [1:0 5:0 32 5] [3 0] 1 0
s 2.122628604 _5_ AGT  --- 51 tcp 1040 [0 0 0 0] ------- [5:0 1:0 32 0] [7 0] 0 0
r 2.122628604 _5_ RTR  --- 51 tcp 1040 [0 0 0 0] ------- [5:0 1:0 32 0] [7 0] 0 0
s 2.122628604 _5_ RTR  --- 51 tcp 1060 [0 0 0 0] ------- [5:0 1:0 32 1] [7 0] 0 0
s 2.122628604 _5_ AGT  --- 52 tcp 1040 [0 0 0 0] ------- [5:0 1:0 32 0] [8 0] 0 0
r 2.122628604 _5_ RTR  --- 52 tcp 1040 [0 0 0 0] ------- [5:0 1:0 32 0] [8 0] 0 0
s 2.122628604 _5_ RTR  --- 52 tcp 1060 [0 0 0 0] ------- [5:0 1:0 32 1] [8 0] 0 0
r 2.132632884 _7_ AGT  --- 23 tcp 1060 [13a 7 8 800] ------- [8:2 7:0 32 7] [2 0] 1 0
s 2.132632884 _7_ AGT  --- 53 ack 40 [0 0 0 0] ------- [7:0 8:2 32 0] [2 0] 0 0
r 2.132632884 _7_ RTR  --- 53 ack 40 [0 0 0 0] ------- [7:0 8:2 32 0] [2 0] 0 0
s 2.132632884 _7_ RTR  --- 53 ack 60 [0 0 0 0] ------- [7:0 8:2 32 8] [2 0] 0 0
r 2.134637162 _8_ AGT  --- 53 ack 60 [13a 8 7 800] ------- [7:0 8:2 32 8] [2 0] 1 0
s 2.134637162 _8_ AGT  --- 54 tcp 1040 [0 0 0 0] ------- [8:2 7:0 32 0] [5 0] 0 0
r 2.134637162 _8_ RTR  --- 54 tcp 1040 [0 0 0 0] ------- [8:2 7:0 32 0] [5 0] 0 0
s 2.134637162 _8_ RTR  --- 54 tcp 1060 [0 0 0 0] ------- [8:2 7:0 32 7] [5 0] 0 0
s 2.134637162 _8_ AGT  --- 55 tcp 1040 [0 0 0 0] ------- [8:2 7:0 32 0] [6 0] 0 0
r 2.134637162 _8_ RTR  --- 55 tcp 1040 [0 0 0 0] ------- [8:2 7:0 32 0] [6 0] 0 0
s 2.134637162 _8_ RTR  --- 55 tcp 1060 [0 0 0 0] ------- [8:2 7:0 32 7] [6 0] 0 0
r 2.144641162 _9_ AGT  --- 29 tcp 1060 [13a 9 8 800] ------- [8:3 9:0 32 9] [1 0] 1 0
s 2.144641162 _9_ AGT  --- 56 ack 40 [0 0 0 0] ------- [9:0 8:3 32 0] [1 0] 0 0
r 2.144641162 _9_ RTR  --- 56 ack 40 [0 0 0 0] ------- [9:0 8:3 32 0] [1 0] 0 0
s 2.144641162 _9_ RTR  --- 56 ack 60 [0 0 0 0] ------- [9:0 8:3 32 8] [1 0] 0 0
r 2.154645162 _9_ AGT  --- 30 tcp 1060 [13a 9 8 800] ------- [8:3 9:0 32 9] [2 0] 1 0
s 2.154645162 _9_ AGT  --- 57 ack 40 [0 0 0 0] ------- [9:0 8:3 32 0] [2 0] 0 0
r 2.154645162 _9_ RTR  --- 57 ack 40 [0 0 0 0] ------- [9:0 8:3 32 0] [2 0] 0 0
s 2.154645162 _9_ RTR  --- 57 ack 60 [0 0 0 0] ------- [9:0 8:3 32 8] [2 0] 0 0
r 2.164649633 _3_ AGT  --- 36 tcp 1060 [13a 3 8 800] ------- [8:1 3:0 32 3] [1 0] 1 0
s 2.164649633 _3_ AGT  --- 58 ack 40 [0 0 0 0] ------- [3:0 8:1 32 0] [1 0] 0 0
r 2.164649633 _3_ RTR  --- 58 ack 40 [0 0 0 0] ------- [3:0 8:1 32 0] [1 0] 0 0
s 2.164649633 _3_ RTR  --- 58 ack 60 [0 0 0 0] ------- [3:0 8:1 32 8] [1 0] 0 0
r 2.166853788 _8_ AGT  --- 56 ack 60 [13a 8 9 800] ------- [9:0 8:3 32 8] [1 0] 1 0
s 2.166853788 _8_ AGT  --- 59 tcp 1040 [0 0 0 0] ------- [8:3 9:0 32 0] [3 0] 0 0
r 2.166853788 _8_ RTR  --- 59 tcp 1040 [0 0 0 0] ------- [8:3 9:0 32 0] [3 0] 0 0
s 2.166853788 _8_ RTR  --- 59 tcp 1060 [0 0 0 0] ------- [8:3 9:0 32 9] [3 0] 0 0
s 2.166853788 _8_ AGT  --- 60 tcp 1040 [0 0 0 0] ------- [8:3 9:0 32 0] [4 0] 0 0
r 2.166853788 _8_ RTR  --- 60 tcp 1040 [0 0 0 0] ------- [8:3 9:0 32 0] [4 0] 0 0
s 2.166853788 _8_ RTR  --- 60 tcp 1060 [0 0 0 0] ------- [8:3 9:0 32 9] [4 0] 0 0
r 2.176918038 _6_ AGT  --- 38 tcp 1060 [13a 6 5 800] ------- [5:3 6:0 32 6] [1 0] 1 0
s 2.176918038 _6_ AGT  --- 61 ack 40 [0 0 0 0] ------- [6:0 5:3 32 0] [1 0] 0 0
r 2.176918038 _6_ RTR  --- 61 ack 40 [0 0 0 0] ------- [6:0 5:3 32 0] [1 0] 0 0
s 2.176918038 _6_ RTR  --- 61 ack 60 [0 0 0 0] ------- [6:0 5:3 32 5] [1 0] 0 0
r 2.179002625 _8_ AGT  --- 58 ack 60 [13a 8 3 800] ------- [3:0 8:1 32 8] [1 0] 1 0
s 2.179002625 _8_ AGT  --- 62 tcp 1040 [0 0 0 0] ------- [8:1 3:0 32 0] [3 0] 0 0
r 2.179002625 _8_ RTR  --- 62 tcp 1040 [0 0 0 0] ------- [8:1 3:0 32 0] [3 0] 0 0
s 2.179002625 _8_ RTR  --- 62 tcp 1060 [0 0 0 0] ------- [8:1 3:0 32 3] [3 0] 0 0
s 2.179002625 _8_ AGT  --- 63 tcp 1040 [0 0 0 0] ------- [8:1 3:0 32 0] [4 0] 0 0
r 2.179002625 _8_ RTR  --- 63 tcp 1040 [0 0 0 0] ------- [8:1 3:0 32 0] [4 0] 0 0
s 2.179002625 _8_ RTR  --- 63 tcp 1060 [0 0 0 0] ------- [8:1 3:0 32 3] [4 0] 0 0
r 2.189027082 _3_ AGT  --- 37 tcp 1060 [13a 3 8 800] ------- [8:1 3:0 32 3] [2 0] 1 0
s 2.189027082 _3_ AGT  --- 64 ack 40 [0 0 0 0] ------- [3:0 8:1 32 0] [2 0] 0 0
r 2.189027082 _3_ RTR  --- 64 ack 40 [0 0 0 0] ------- [3:0 8:1 32 0] [2 0] 0 0
s 2.189027082 _3_ RTR  --- 64 ack 60 [0 0 0 0] ------- [3:0 8:1 32 8] [2 0] 0 0
r 2.191031358 _5_ AGT  --- 48 ack 60 [13a 5 1 800] ------- [1:0 5:0 32 5] [4 0] 1 0
s 2.191031358 _5_ AGT  --- 65 tcp 1040 [0 0 0 0] ------- [5:0 1:0 32 0] [9 0] 0 0
r 2.191031358 _5_ RTR  --- 65 tcp 1040 [0 0 0 0] ------- [5:0 1:0 32 0] [9 0] 0 0
s 2.191031358 _5_ RTR  --- 65 tcp 1060 [0 0 0 0] ------- [5:0 1:0 32 1] [9 0] 0 0
s 2.191031358 _5_ AGT  --- 66 tcp 1040 [0 0 0 0] ------- [5:0 1:0 32 0] [10 0] 0 0
r 2.191031358 _5_ RTR  --- 66 tcp 1040 [0 0 0 0] ------- [5:0 1:0 32 0] [10 0] 0 0
s 2.191031358 _5_ RTR  --- 66 tcp 1060 [0 0 0 0] ------- [5:0 1:0 32 1] [10 0] 0 0
r 2.193155358 _8_ AGT  --- 57 ack 60 [13a 8 9 800] ------- [9:0 8:3 32 8] [2 0] 1 0
s 2.193155358 _8_ AGT  --- 67 tcp 1040 [0 0 0 0] ------- [8:3 9:0 32 0] [5 0] 0 0
r 2.193155358 _8_ RTR  --- 67 tcp 1040 [0 0 0 0] ------- [8:3 9:0 32 0] [5 0] 0 0
s 2.193155358 _8_ RTR  --- 67 tcp 1060 [0 0 0 0] ------- [8:3 9:0 32 9] [5 0] 0 0
s 2.193155358 _8_ AGT  --- 68 tcp 1040 [0 0 0 0] ------- [8:3 9:0 32 0] [6 0] 0 0
r 2.193155358 _8_ RTR  --- 68 tcp 1040 [0 0 0 0] ------- [8:3 9:0 32 0] [6 0] 0 0
s 2.193155358 _8_ RTR  --- 68 tcp 1060 [0 0 0 0] ------- [8:3 9:0 32 9] [6 0] 0 0
r 2.203159608 _6_ AGT  --- 39 tcp 1060 [13a 6 5 800] ------- [5:3 6:0 32 6] [2 0] 1 0
s 2.203159608 _6_ AGT  --- 69 ack 40 [0 0 0 0] ------- [6:0 5:3 32 0] [2 0] 0 0
r 2.203159608 _6_ RTR  --- 69 ack 40 [0 0 0 0] ------- [6:0 5:3 32 0] [2 0] 0 0
s 2.203159608 _6_ RTR  --- 69 ack 60 [0 0 0 0] ------- [6:0 5:3 32 5] [2 0] 0 0
r 2.205164175 _8_ AGT  --- 64 ack 60 [13a 8 3 800] ------- [3:0 8:1 32 8] [2 0] 1 0
s 2.205164175 _8_ AGT  --- 70 tcp 1040 [0 0 0 0] ------- [8:1 3:0 32 0] [5 0] 0 0
r 2.205164175 _8_ RTR  --- 70 tcp 1040 [0 0 0 0] ------- [8:1 3:0 32 0] [5 0] 0 0
s 2.205164175 _8_ RTR  --- 70 tcp 1060 [0 0 0 0] ------- [8:1 3:0 32 3] [5 0] 0 0
s 2.205164175 _8_ AGT  --- 71 tcp 1040 [0 0 0 0] ------- [8:1 3:0 32 0] [6 0] 0 0
r 2.205164175 _8_ RTR  --- 71 tcp 1040 [0 0 0 0] ------- [8:1 3:0 32 0] [6 0] 0 0
s 2.205164175 _8_ RTR  --- 71 tcp 1060 [0 0 0 0] ------- [8:1 3:0 32 3] [6 0] 0 0
r 2.207168650 _5_ AGT  --- 46 ack 60 [13a 5 2 800] ------- [2:0 5:1 32 5] [2 0] 1 0
s 2.207168650 _5_ AGT  --- 72 tcp 1040 [0 0 0 0] ------- [5:1 2:0 32 0] [5 0] 0 0
r 2.207168650 _5_ RTR  --- 72 tcp 1040 [0 0 0 0] ------- [5:1 2:0 32 0] [5 0] 0 0
s 2.207168650 _5_ RTR  --- 72 tcp 1060 [0 0 0 0] ------- [5:1 2:0 32 2] [5 0] 0 0
s 2.207168650 _5_ AGT  --- 73 tcp 1040 [0 0 0 0] ------- [5:1 2:0 32 0] [6 0] 0 0
r 2.207168650 _5_ RTR  --- 73 tcp 1040 [0 0 0 0] ------- [5:1 2:0 32 0] [6 0] 0 0
s 2.207168650 _5_ RTR  --- 73 tcp 1060 [0 0 0 0] ------- [5:1 2:0 32 2] [6 0] 0 0
r 2.209272983 _5_ AGT  --- 61 ack 60 [13a 5 6 800] ------- [6:0 5:3 32 5] [1 0] 1 0
s 2.209272983 _5_ AGT  --- 74 tcp 1040 [0 0 0 0] ------- [5:3 6:0 32 0] [3 0] 0 0
r 2.209272983 _5_ RTR  --- 74 tcp 1040 [0 0 0 0] ------- [5:3 6:0 32 0] [3 0] 0 0
s 2.209272983 _5_ RTR  --- 74 tcp 1060 [0 0 0 0] ------- [5:3 6:0 32 6] [3 0] 0 0
s 2.209272983 _5_ AGT  --- 75 tcp 1040 [0 0 0 0] ------- [5:3 6:0 32 0] [4 0] 0 0
r 2.209272983 _5_ RTR  --- 75 tcp 1040 [0 0 0 0] ------- [5:3 6:0 32 0] [4 0] 0 0
s 2.209272983 _5_ RTR  --- 75 tcp 1060 [0 0 0 0] ------- [5:3 6:0 32 6] [4 0] 0 0
r 2.211257317 _5_ AGT  --- 69 ack 60 [13a 5 6 800] ------- [6:0 5:3 32 5] [2 0] 1 0
s 2.211257317 _5_ AGT  --- 76 tcp 1040 [0 0 0 0] ------- [5:3 6:0 32 0] [5 0] 0 0
r 2.211257317 _5_ RTR  --- 76 tcp 1040 [0 0 0 0] ------- [5:3 6:0 32 0] [5 0] 0 0
s 2.211257317 _5_ RTR  --- 76 tcp 1060 [0 0 0 0] ------- [5:3 6:0 32 6] [5 0] 0 0
s 2.211257317 _5_ AGT  --- 77 tcp 1040 [0 0 0 0] ------- [5:3 6:0 32 0] [6 0] 0 0
r 2.211257317 _5_ RTR  --- 77 tcp 1040 [0 0 0 0] ------- [5:3 6:0 32 0] [6 0] 0 0
s 2.211257317 _5_ RTR  --- 77 tcp 1060 [0 0 0 0] ------- [5:3 6:0 32 6] [6 0] 0 0
r 2.221321468 _1_ AGT  --- 40 tcp 1060 [13a 1 5 800] ------- [5:0 1:0 32 1] [5 0] 1 0
s 2.221321468 _1_ AGT  --- 78 ack 40 [0 0 0 0] ------- [1:0 5:0 32 0] [5 0] 0 0
r 2.221321468 _1_ RTR  --- 78 ack 40 [0 0 0 0] ------- [1:0 5:0 32 0] [5 0] 0 0
s 2.221321468 _1_ RTR  --- 78 ack 60 [0 0 0 0] ------- [1:0 5:0 32 5] [5 0] 0 0
r 2.231425775 _7_ AGT  --- 44 tcp 1060 [13a 7 8 800] ------- [8:2 7:0 32 7] [3 0] 1 0
s 2.231425775 _7_ AGT  --- 79 ack 40 [0 0 0 0] ------- [7:0 8:2 32 0] [3 0] 0 0
r 2.231425775 _7_ RTR  --- 79 ack 40 [0 0 0 0] ------- [7:0 8:2 32 0] [3 0] 0 0
s 2.231425775 _7_ RTR  --- 79 ack 60 [0 0 0 0] ------- [7:0 8:2 32 8] [3 0] 0 0
r 2.241630118 _7_ AGT  --- 45 tcp 1060 [13a 7 8 800] ------- [8:2 7:0 32 7] [4 0] 1 0
s 2.241630118 _7_ AGT  --- 80 ack 40 [0 0 0 0] ------- [7:0 8:2 32 0] [4 0] 0 0
r 2.241630118 _7_ RTR  --- 80 ack 40 [0 0 0 0] ------- [7:0 8:2 32 0] [4 0] 0 0
s 2.241630118 _7_ RTR  --- 80 ack 60 [0 0 0 0] ------- [7:0 8:2 32 8] [4 0] 0 0
r 2.243834336 _5_ AGT  --- 78 ack 60 [13a 5 1 800] ------- [1:0 5:0 32 5] [5 0] 1 0
s 2.243834336 _5_ AGT  --- 81 tcp 1040 [0 0 0 0] ------- [5:0 1:0 32 0] [11 0] 0 0
r 2.243834336 _5_ RTR  --- 81 tcp 1040 [0 0 0 0] ------- [5:0 1:0 32 0] [11 0] 0 0
s 2.243834336 _5_ RTR  --- 81 tcp 1060 [0 0 0 0] ------- [5:0 1:0 32 1] [11 0] 0 0
s 2.243834336 _5_ AGT  --- 82 tcp 1040 [0 0 0 0] ------- [5:0 1:0 32 0] [12 0] 0 0
r 2.243834336 _5_ RTR  --- 82 tcp 1040 [0 0 0 0] ------- [5:0 1:0 32 0] [12 0] 0 0
s 2.243834336 _5_ RTR  --- 82 tcp 1060 [0 0 0 0] ------- [5:0 1:0 32 1] [12 0] 0 0
r 2.253838464 _1_ AGT  --- 41 tcp 1060 [13a 1 5 800] ------- [5:0 1:0 32 1] [6 0] 1 0
s 2.253838464 _1_ AGT  --- 83 ack 40 [0 0 0 0] ------- [1:0 5:0 32 0] [6 0] 0 0
r 2.253838464 _1_ RTR  --- 83 ack 40 [0 0 0 0] ------- [1:0 5:0 32 0] [6 0] 0 0
s 2.253838464 _1_ RTR  --- 83 ack 60 [0 0 0 0] ------- [1:0 5:0 32 5] [6 0] 0 0
r 2.255962586 _5_ AGT  --- 83 ack 60 [13a 5 1 800] ------- [1:0 5:0 32 5] [6 0] 1 0
s 2.255962586 _5_ AGT  --- 84 tcp 1040 [0 0 0 0] ------- [5:0 1:0 32 0] [13 0] 0 0
r 2.255962586 _5_ RTR  --- 84 tcp 1040 [0 0 0 0] ------- [5:0 1:0 32 0] [13 0] 0 0
s 2.255962586 _5_ RTR  --- 84 tcp 1060 [0 0 0 0] ------- [5:0 1:0 32 1] [13 0] 0 0
s 2.255962586 _5_ AGT  --- 85 tcp 1040 [0 0 0 0] ------- [5:0 1:0 32 0] [14 0] 0 0
r 2.255962586 _5_ RTR  --- 85 tcp 1040 [0 0 0 0] ------- [5:0 1:0 32 0] [14 0] 0 0